97
Properties=species:S:1:pos:R:3:forces:R:3 spin=1 charge=0 energy=-90906.08330935657 pbc="F F F"
C       -0.03807901       1.85937481      -1.76855125      -0.00054287       0.00166297      -0.00048415
O       -0.83618719       1.66578545      -2.69415222      -0.00160500       0.00170547       0.00046946
Ni       0.42879523       0.18357391      -0.69617245      -0.00108231       0.00096543      -0.00043596
C       -0.47381596      -1.10424572       0.30717954       0.00009686      -0.00011111      -0.00069482
N        0.17986250      -2.15248195       0.85792524       0.00010695       0.00034555       0.00010280
N       -1.77919968      -1.29218069       0.56508170       0.00009173      -0.00061208      -0.00121215
C       -0.67878765      -3.04734334       1.63082757       0.00020377       0.00114495       0.00110470
C        1.60241423      -2.23993299       0.85664357      -0.00001824       0.00010007       0.00053988
C       -2.07093808      -2.57895175       1.20014649       0.00022581       0.00004249       0.00004579
C       -2.82102753      -0.43539945       0.09591905       0.00027074      -0.00065770      -0.00133914
H       -0.48554068      -4.09161303       1.38112782       0.00069647       0.00084517       0.00270670
H       -0.50746509      -2.91554998       2.70464940      -0.00015025       0.00283748       0.00095074
C        2.22986403      -2.99072131      -0.14265634      -0.00005002      -0.00018947       0.00073061
C        2.33306620      -1.55778907       1.83538179      -0.00031655      -0.00004264       0.00082737
H       -2.52971384      -3.26036705       0.47719740       0.00075881      -0.00097588       0.00067350
H       -2.75941176      -2.45368420       2.03660579      -0.00013374       0.00079406      -0.00037507
C       -3.37227377       0.48649124       0.98968752       0.00076613      -0.00034016      -0.00142143
C       -3.27098952      -0.55271835      -1.22320175       0.00032696      -0.00092561      -0.00128396
C        3.62009885      -3.00318669      -0.17938216      -0.00003403      -0.00087018       0.00143116
C        1.43501106      -3.77253092      -1.16921048      -0.00032800       0.00107224      -0.00006329
C        3.72169632      -1.60212442       1.76691750      -0.00030949      -0.00098949       0.00171144
C        1.65419906      -0.79951327       2.95889031      -0.00096348       0.00188966      -0.00083624
C       -4.36884982       1.33608283       0.52311546       0.00120668       0.00007776      -0.00159292
C       -2.90613091       0.58369227       2.42905988       0.00109432      -0.00134613      -0.00147105
C       -4.26760462       0.31792071      -1.64859063       0.00078577      -0.00053501      -0.00152140
C       -2.75228130      -1.63202208      -2.15373830       0.00017377      -0.00169708      -0.00046418
C        4.36173530      -2.30702247       0.76054233      -0.00020587      -0.00143675       0.00204332
H        4.12942637      -3.56121852      -0.95591482       0.00010756      -0.00089369       0.00155632
C        1.77372471      -5.26334824      -1.10667102      -0.00020088       0.00099402      -0.00305878
C        1.64374281      -3.21327070      -2.57653857      -0.00142199       0.00350357       0.00075011
H        0.37682702      -3.65654936      -0.92770168      -0.00021723       0.00043398       0.00073232
H        4.31029921      -1.07462700       2.50824700      -0.00038240      -0.00124731       0.00195630
C        2.02392029       0.68306099       2.94331572      -0.00063521       0.00179485      -0.00351759
C        1.98050606      -1.44021842       4.31051184      -0.00267165       0.00468423       0.00083187
H        0.57535027      -0.86055711       2.80459265      -0.00084650       0.00200380      -0.00173551
C       -4.80703407       1.25919689      -0.78765356       0.00129795      -0.00004132      -0.00166639
H       -4.79956373       2.07287658       1.19073419       0.00146255       0.00038440      -0.00177640
C       -4.05823020       0.34954664       3.40792122       0.00099892      -0.00033144      -0.00140443
C       -2.22239611       1.92459038       2.68710279       0.00361433      -0.00277498      -0.00077985
H       -2.16096228      -0.19751954       2.59403814      -0.00014594      -0.00259405      -0.00192529
H       -4.62389743       0.26199780      -2.66939686       0.00077902      -0.00051087      -0.00151906
C       -2.37877723      -1.09446700      -3.53450423      -0.00118631      -0.00333037      -0.00145635
C       -3.78960739      -2.75347898      -2.27956694       0.00090538      -0.00266285       0.00204568
H       -1.84498705      -2.04842069      -1.71027659       0.00083817      -0.00051874      -0.00070974
H        5.44351154      -2.32154737       0.71385192      -0.00019394      -0.00210304       0.00265813
H        1.62318850      -5.66223953      -0.10174773      -0.00124457      -0.00135454      -0.00415886
H        2.81448258      -5.44424442      -1.38263634       0.00005301       0.00165439      -0.00249054
H        1.14410942      -5.82649355      -1.79781587       0.00050818       0.00262115      -0.00501215
H        1.34381639      -2.16477912      -2.61936649      -0.00009762       0.00398861       0.00320809
H        1.05128154      -3.77303617      -3.30317959      -0.00326052       0.00574947       0.00048737
H        2.69263777      -3.28241000      -2.87473608      -0.00192082       0.00258826      -0.00082382
H        1.73382979       1.13702918       1.99451577       0.00273696      -0.00077924      -0.00579381
H        3.09838624       0.82660880       3.08042574      -0.00109508       0.00195932      -0.00009951
H        1.50963239       1.21174364       3.74866455      -0.00349952       0.00405346      -0.00683001
H        1.71346301      -2.49884375       4.32330603      -0.00506006       0.00531286       0.00366162
H        1.43880145      -0.93873920       5.11446697      -0.00185169       0.00804798      -0.00069994
H        3.04791753      -1.36697573       4.52969394      -0.00259830       0.00294836       0.00105228
H       -5.57731924       1.93394513      -1.14015397       0.00168792       0.00027027      -0.00189005
H       -4.53894350      -0.61567312       3.23658496      -0.00043486       0.00050109      -0.00217708
H       -4.82293004       1.12220531       3.30746556       0.00205798       0.00086807      -0.00048511
H       -3.69454945       0.37525007       4.43710863       0.00132258      -0.00187143      -0.00147002
H       -1.39198476       2.07446238       1.99680920       0.00388197      -0.00394688      -0.00078493
H       -1.84071339       1.97336931       3.70994810       0.00390290      -0.00434069      -0.00080345
H       -2.92119498       2.75254154       2.54904259       0.00522841      -0.00131633      -0.00006057
H       -1.69935816      -0.24715669      -3.45274736      -0.00181442      -0.00263605      -0.00304431
H       -3.26446699      -0.76686994      -4.08417733      -0.00175017      -0.00499556      -0.00152526
H       -1.90714565      -1.88460585      -4.12378177      -0.00077824      -0.00381562      -0.00049178
H       -4.07085978      -3.16238550      -1.30692026       0.00376744      -0.00294017       0.00274940
H       -3.40358919      -3.56669825      -2.89784160       0.00013047      -0.00233641       0.00114512
H       -4.69959601      -2.37513428      -2.75124197      -0.00070479      -0.00356287       0.00439178
N        1.32712596       1.36476963      -1.92026327      -0.00118458       0.00064005      -0.00129088
C       -1.18233958       4.89786760       1.06007646       0.00254822       0.00014323       0.00274208
C       -2.00671423       4.50567364       0.01515723       0.00114115       0.00013252       0.00388762
H        0.69240502       4.55884263       2.04837272       0.00472169       0.00127497      -0.00094386
C        0.04578021       4.27402787       1.22754750       0.00331797       0.00103166       0.00022716
C       -1.59603563       3.51873999      -0.86543779       0.00033001       0.00087134       0.00265960
C       -0.35401706       2.89739371      -0.71877669       0.00091702       0.00143326       0.00031902
C        0.45503774       3.27590694       0.35548689       0.00251821       0.00169887      -0.00090744
H       -2.22273888       3.20830688      -1.69003278      -0.00086698       0.00094616       0.00355879
H        1.41039630       2.80365901       0.52546430       0.00327766       0.00268313      -0.00266998
H       -1.49726006       5.67624869       1.74365658       0.00312677      -0.00050477       0.00377629
H       -2.97344991       4.97465292      -0.12170494       0.00054174      -0.00051847       0.00581157
C        2.47886061       2.12416040      -1.50165607      -0.00049183      -0.00039767      -0.00140754
C        2.67008471       3.41020261      -1.98579210      -0.00053253       0.00065171       0.00133264
C        3.41885143       1.53768934      -0.66748822      -0.00057724      -0.00201327      -0.00243014
C        3.79679776       4.12503585      -1.60872177      -0.00120140       0.00034257       0.00404106
H        1.92466986       3.84927529      -2.63815967      -0.00037360       0.00208402       0.00212052
C        4.54734229       2.25527516      -0.29670940      -0.00117675      -0.00244502       0.00004072
H        3.24579036       0.53002584      -0.30249845      -0.00061041      -0.00283114      -0.00466221
C        4.73558928       3.55001694      -0.76248160      -0.00168497      -0.00109603       0.00355286
H        3.94144123       5.13283984      -1.97579393      -0.00157591       0.00145105       0.00688889
H        5.27853336       1.80234561       0.36101241      -0.00151589      -0.00367165      -0.00042898
H        5.61428023       4.10975508      -0.46944290      -0.00246902      -0.00112924       0.00606812
C        1.58494089       0.72961735      -3.22862532      -0.00237968      -0.00127596      -0.00053384
H        1.70474640       1.49409978      -4.00051549      -0.00158486      -0.00261040      -0.00173639
H        2.50004502       0.14508879      -3.14594226      -0.00322339      -0.00250287       0.00005544
H        0.74975118       0.09024219      -3.49337013      -0.00332513      -0.00059971       0.00075178
