97
Properties=species:S:1:pos:R:3:forces:R:3 spin=1 charge=0 energy=-90905.94228095234 pbc="F F F"
C       -0.54217203       1.51165466      -1.32647834      -0.14842953      -0.04449857       0.08710136
O       -1.21737425       1.43451940      -2.32578918      -0.09973641      -0.01979797       0.05752354
Ni       0.49176924       0.10123416      -0.79957133      -0.00028343       0.03338428      -0.03628119
C       -0.50603249      -1.09790578       0.29150053       0.00447302       0.01543431      -0.01160650
N        0.17852345      -2.08021042       0.90544995       0.00442568       0.01818324      -0.00902165
N       -1.80180553      -1.32417412       0.51797965       0.00486125       0.01100167      -0.01082904
C       -0.65822047      -3.01718522       1.65663742       0.00567630       0.01598100      -0.00813926
C        1.60560501      -2.12428928       0.92089227       0.00445380       0.00855833      -0.00398637
C       -2.06343378      -2.57956088       1.23246864       0.00545956       0.01318894      -0.00542954
C       -2.87587013      -0.51644620       0.03224295      -0.00015587       0.00553675      -0.00726152
H       -0.43243811      -4.04781402       1.37820793       0.00739037       0.01621989      -0.00809774
H       -0.48924098      -2.90957428       2.73184787       0.00738244       0.01534108      -0.00835202
C        2.26896798      -2.80375714      -0.10666515       0.00198949       0.00454233      -0.00214513
C        2.29443437      -1.48321383       1.95723368       0.00248519       0.00223222       0.00057351
H       -2.53725343      -3.29823353       0.55894748       0.00271863       0.01086970      -0.00104859
H       -2.73317031      -2.41105309       2.07617345       0.00711502       0.01660753      -0.00457152
C       -3.45800956       0.40106524       0.91095029       0.00073004       0.00446976      -0.00549630
C       -3.32078374      -0.68639936      -1.28167609      -0.00288344       0.00078219      -0.00538505
C        3.66000372      -2.79379017      -0.10063311       0.00170373       0.00028403       0.00073432
C        1.51679064      -3.55531028      -1.18736302       0.00066898       0.00572726      -0.00236176
C        3.68359131      -1.51231373       1.93071813       0.00206297      -0.00327972       0.00366468
C        1.56797074      -0.77911501       3.08639727       0.00152986       0.00198560       0.00037054
C       -4.49394148       1.19280885       0.42949189      -0.00005643       0.00345496      -0.00520238
C       -3.00660164       0.53632094       2.35319186       0.00126097       0.00291523      -0.00500440
C       -4.35735122       0.12801292      -1.71997653      -0.00278254       0.00062387      -0.00498720
C       -2.74257468      -1.75201310      -2.19346959      -0.00218446      -0.00106011      -0.00331525
C        4.36122147      -2.15114879       0.90480149       0.00132360      -0.00256099       0.00273360
H        4.20085999      -3.29460244      -0.89400914       0.00161207       0.00128799       0.00018514
C        1.78824463      -5.05882476      -1.08264514       0.00098823       0.00538993      -0.00351099
C        1.85179023      -3.02580371      -2.58172466      -0.00061000       0.00697258      -0.00235209
H        0.44881518      -3.39634874      -1.02454251       0.00030200       0.00394747      -0.00095753
H        4.24370380      -1.01432220       2.71273815       0.00234575      -0.00472242       0.00425140
C        1.98656243       0.68627648       3.20000889       0.00231458       0.00168915       0.00118924
C        1.78699642      -1.51733827       4.40945090      -0.00064320       0.00164695       0.00067493
H        0.49948364      -0.79105864       2.86118443       0.00135434       0.00249681       0.00047379
C       -4.93420919       1.06296147      -0.87657035      -0.00055472       0.00233358      -0.00507517
H       -4.95661216       1.92285579       1.08260244       0.00009926       0.00357558      -0.00526746
C       -4.12723096       0.13776270       3.31758160       0.00173382      -0.00022435      -0.00561801
C       -2.50328961       1.94704303       2.65420191      -0.00116740       0.00281288      -0.00026428
H       -2.16805349      -0.14633766       2.51024823       0.00221662       0.00380219      -0.00579105
H       -4.71260763       0.03666667      -2.73823499      -0.00324662       0.00061326      -0.00476648
C       -2.41880098      -1.22925810      -3.59274248      -0.00595673      -0.00873954      -0.00706426
C       -3.70390021      -2.94257397      -2.28175318      -0.00093404      -0.00263647       0.00361938
H       -1.80537799      -2.09859849      -1.75154926      -0.00091165       0.00102243      -0.00425615
H        5.44356797      -2.14574735       0.88821677       0.00117429      -0.00251968       0.00262521
H        1.53571457      -5.44123320      -0.09154022       0.00047451       0.00352343      -0.00428210
H        2.84202569      -5.27993662      -1.26354845       0.00113839       0.00602630      -0.00301360
H        1.19976683      -5.60562177      -1.82144016       0.00205094       0.00596968      -0.00480787
H        1.64099747      -1.95710844      -2.65742606       0.00434605       0.00788215      -0.00118984
H        1.26265633      -3.54910963      -3.33722210      -0.00153832       0.00688569      -0.00170518
H        2.90696714      -3.17753215      -2.81836397      -0.00092172       0.00516791      -0.00234894
H        1.82679775       1.21008800       2.25821500       0.00720236       0.00211916       0.00064174
H        3.04212800       0.77969618       3.46299901       0.00172062       0.00028906       0.00346200
H        1.40330331       1.18774577       3.97459580       0.00084192       0.00211562      -0.00015462
H        1.48091958      -2.56318409       4.34106850      -0.00300970       0.00223597       0.00141532
H        1.21883966      -1.04351932       5.21182824       0.00019410       0.00337368       0.00032388
H        2.84212372      -1.50093311       4.69039986      -0.00083450      -0.00068526       0.00120709
H       -5.73596914       1.69343733      -1.23977654      -0.00016695       0.00273516      -0.00504243
H       -4.48835625      -0.87411283       3.12229412       0.00304894      -0.00058386      -0.00597595
H       -4.97887404       0.81446256       3.22346438       0.00092883      -0.00117001      -0.00494274
H       -3.77717431       0.18518189       4.35071578       0.00185860      -0.00021584      -0.00567753
H       -1.69519790       2.22720578       1.97992287       0.00009444       0.00553416       0.00295978
H       -2.13526510       2.00869315       3.68088564      -0.00300808       0.00004141       0.00043951
H       -3.30241641       2.68252438       2.54153107      -0.00170146       0.00217735       0.00011426
H       -1.79665706      -0.33893751      -3.53599759      -0.00338340      -0.01056716      -0.01529133
H       -3.32899930      -0.97862410      -4.14204279      -0.00716944      -0.00924751      -0.00508702
H       -1.89664867      -2.00026652      -4.16335960      -0.00914705      -0.01249144      -0.00447117
H       -3.94416435      -3.35232935      -1.29868892       0.00261829       0.00003684       0.00554324
H       -3.27249412      -3.73849925      -2.89215414      -0.00185400      -0.00375251       0.00457058
H       -4.64314404      -2.63391994      -2.74633928      -0.00264388      -0.00481250       0.00578391
N        1.58841920       1.01622930      -1.95516268       0.17984620      -0.19454978      -0.02980776
C       -0.93882129       4.94902867       1.17488958       0.00860336       0.01690382      -0.00083717
C       -1.85891795       4.67596588       0.17097235      -0.01418810       0.03101808       0.01515043
H        0.90842192       4.36726042       2.09958361       0.01975287       0.00268039      -0.03215799
C        0.18521621       4.14625896       1.32402094      -0.00042399       0.00129544      -0.01300595
C       -1.66729671       3.58741952      -0.66125404      -0.05553552       0.01361228       0.03196202
C       -0.56802683       2.75463831      -0.48631440      -0.08391219      -0.01778466       0.04245054
C        0.37134761       3.04793026       0.49610387      -0.04203774      -0.01891906       0.00313494
H       -2.36501475       3.33962290      -1.45028621      -0.06341391       0.01440182       0.03846275
H        1.24895142       2.42568127       0.61147173      -0.04550897      -0.03114243      -0.01740261
H       -1.10128151       5.78573870       1.84238322       0.03275183       0.02349753      -0.00370709
H       -2.73319331       5.30116105       0.04387006      -0.00058331       0.04964898       0.01840237
C        2.63233995       1.82407657      -1.53435329       0.07504752      -0.07840446      -0.02011680
C        2.97224721       3.04395585      -2.13777127       0.03479028      -0.05743536      -0.01231818
C        3.41533606       1.38558565      -0.46017211       0.05382539      -0.01241739       0.02892242
C        4.09182094       3.74740566      -1.71778168       0.00237084      -0.01380371       0.01256046
H        2.35222907       3.44667960      -2.92923830       0.04182069      -0.06768388      -0.02297064
C        4.52776587       2.09108202      -0.04453729       0.02169473       0.02262891       0.04022719
H        3.15029088       0.43862025      -0.00081859       0.06869141      -0.01732275       0.02551683
C        4.88697098       3.27254032      -0.68280791       0.00557229       0.02186586       0.02516847
H        4.34998487       4.67868698      -2.20849785      -0.02002017      -0.00649294       0.01272267
H        5.13798538       1.69268438       0.75708118       0.01927612       0.04257453       0.05191619
H        5.77736213       3.80833728      -0.38312578      -0.00608035       0.04177320       0.02370359
C        1.41806476       0.87433627      -3.38691582       0.02022576      -0.01014408      -0.03270992
H        1.28216900       1.81199959      -3.93684135      -0.04259875       0.04156282       0.06408370
H        2.29976480       0.36553455      -3.79381838      -0.01619004       0.03128669      -0.17397138
H        0.54348332       0.25865306      -3.58983102       0.00376846       0.00388847      -0.01012549
