97
Properties=species:S:1:pos:R:3:forces:R:3 spin=1 charge=0 energy=-90906.03212470234 pbc="F F F"
C       -0.58273704       1.50172060      -1.30282028      -0.08474719      -0.02677142       0.06569070
O       -1.25328538       1.42912955      -2.30511361      -0.09107081      -0.02020212       0.04279893
Ni       0.49290774       0.11083259      -0.81323773       0.00497853       0.01800538      -0.03212890
C       -0.50417030      -1.09062006       0.28662740       0.00650240       0.01496688      -0.01260115
N        0.18085963      -2.07185009       0.90101813       0.00567831       0.01765224      -0.00862748
N       -1.79968569      -1.31871011       0.51389693       0.00580442       0.01226947      -0.01129318
C       -0.65481111      -3.01049202       1.65158304       0.00666630       0.01657170      -0.00858711
C        1.60773933      -2.11927652       0.91843393       0.00520147       0.00930386      -0.00450689
C       -2.06029696      -2.57422793       1.22883968       0.00668971       0.01475806      -0.00651379
C       -2.87660151      -0.51406085       0.02984571       0.00099376       0.00649150      -0.00792141
H       -0.42758905      -4.04046775       1.37192715       0.00834499       0.01716720      -0.00937707
H       -0.48502739      -2.90381455       2.72670761       0.00825494       0.01616601      -0.00892007
C        2.27042865      -2.80089559      -0.10782883       0.00311322       0.00514182      -0.00242982
C        2.29560740      -1.48107992       1.95694567       0.00359553       0.00255137       0.00022690
H       -2.53458099      -3.29321363       0.55597482       0.00409471       0.01284286      -0.00263598
H       -2.72951982      -2.40579925       2.07300467       0.00835373       0.01848866      -0.00584889
C       -3.45923690       0.40237184       0.90941220       0.00088735       0.00525515      -0.00624521
C       -3.32294112      -0.68631743      -1.28318175      -0.00309822       0.00133954      -0.00579549
C        3.66136260      -2.79308212      -0.10008557       0.00286303       0.00013074       0.00078008
C        1.51778139      -3.55239567      -1.18835454       0.00154057       0.00631104      -0.00255468
C        3.68463274      -1.51272930       1.93229293       0.00326998      -0.00366533       0.00394638
C        1.56840116      -0.77770705       3.08616805       0.00236539       0.00239198      -0.00019197
C       -4.49599801       1.19313496       0.42818118      -0.00053595       0.00356399      -0.00563233
C       -3.00787396       0.53696445       2.35194939       0.00099699       0.00335029      -0.00555135
C       -4.36022266       0.12721552      -1.72115654      -0.00387101       0.00023096      -0.00507980
C       -2.74366455      -1.75211119      -2.19431434      -0.00273512      -0.00087974      -0.00354382
C        4.36222067      -2.15150875       0.90628373       0.00262886      -0.00321322       0.00315054
H        4.20234318      -3.29399309      -0.89326845       0.00277600       0.00055522       0.00052443
C        1.78835148      -5.05610276      -1.08271076       0.00116207       0.00599464      -0.00349660
C        1.85331922      -3.02382247      -2.58296059       0.00048494       0.00669912      -0.00276251
H        0.44971898      -3.39317310      -1.02563424       0.00136362       0.00551247      -0.00126237
H        4.24464035      -1.01567088       2.71495871       0.00351378      -0.00615834       0.00533148
C        1.98708473       0.68753769       3.20116754       0.00309099       0.00208532       0.00102478
C        1.78645397      -1.51696287       4.40887517      -0.00035635       0.00207594       0.00023052
H        0.49992360      -0.78941740       2.86068188       0.00239571       0.00315709      -0.00079602
C       -4.93650800       1.06266182      -0.87781434      -0.00165510       0.00215346      -0.00524020
H       -4.95892398       1.92302924       1.08128143      -0.00056986       0.00357047      -0.00560410
C       -4.12802126       0.13652563       3.31619653       0.00144993      -0.00051699      -0.00637705
C       -2.50634054       1.94782502       2.65522142      -0.00220557       0.00318885       0.00051063
H       -2.16862594      -0.14497410       2.50854315       0.00210689       0.00454087      -0.00659655
H       -4.71576955       0.03562273      -2.73929300      -0.00486601      -0.00017286      -0.00463255
C       -2.41980917      -1.23111532      -3.59423894      -0.00630939      -0.00878962      -0.00736770
C       -3.70409511      -2.94345808      -2.28182239      -0.00140827      -0.00250588       0.00351732
H       -1.80640316      -2.09806270      -1.75201892      -0.00150105       0.00158940      -0.00437468
H        5.44453083      -2.14639943       0.89009739       0.00252530      -0.00420987       0.00363487
H        1.53536893      -5.43819535      -0.09156624       0.00046353       0.00440075      -0.00421658
H        2.84207254      -5.27776587      -1.26320873       0.00125660       0.00620656      -0.00305420
H        1.19995066      -5.60297110      -1.82153605       0.00194089       0.00677825      -0.00475809
H        1.64579309      -1.95459544      -2.65857151       0.00604688       0.00763129      -0.00120068
H        1.26330857      -3.54678450      -3.33805683      -0.00149167       0.00739129      -0.00185756
H        2.90826283      -3.17769136      -2.81920035      -0.00004252       0.00383948      -0.00321053
H        1.82908039       1.21210550       2.25949410       0.00761799       0.00256965       0.00052287
H        3.04238630       0.78034030       3.46529512       0.00240741       0.00069903       0.00396760
H        1.40309227       1.18864094       3.97545525       0.00123833       0.00247554      -0.00057268
H        1.48011799      -2.56269582       4.33968927      -0.00286514       0.00273919       0.00068741
H        1.21804037      -1.04356942       5.21134158       0.00023703       0.00374036      -0.00027561
H        2.84141189      -1.50113897       4.69040414      -0.00061096      -0.00046400       0.00110812
H       -5.73826679       1.69311701      -1.24101439      -0.00137147       0.00241038      -0.00515368
H       -4.48833242      -0.87557511       3.12068701       0.00305113      -0.00090206      -0.00707657
H       -4.98020685       0.81262898       3.22275098       0.00050221      -0.00163174      -0.00542955
H       -3.77763760       0.18386516       4.34923205       0.00163479      -0.00074028      -0.00642385
H       -1.69798702       2.22963169       1.98222308      -0.00067002       0.00655920       0.00443640
H       -2.13903020       2.00836428       3.68219014      -0.00474806      -0.00026962       0.00155994
H       -3.30612041       2.68261189       2.54288242      -0.00290617       0.00238965       0.00093481
H       -1.79686151      -0.34141377      -3.53898815      -0.00349700      -0.01063988      -0.01521455
H       -3.32991617      -0.98019232      -4.14350657      -0.00738539      -0.00925538      -0.00563650
H       -1.89830706      -2.00314112      -4.16398714      -0.01001394      -0.01326140      -0.00462451
H       -3.94397257      -3.35291194      -1.29855028       0.00225910       0.00032961       0.00557290
H       -3.27199604      -3.73929912      -2.89181771      -0.00214067      -0.00378033       0.00473656
H       -4.64356663      -2.63576149      -2.74653706      -0.00321909      -0.00508721       0.00558995
N        1.64743460       0.94547560      -1.96593275       0.13197033      -0.15900022      -0.02722032
C       -0.93775804       4.95694694       1.17689635       0.00933603       0.01872394       0.00017294
C       -1.86670057       4.68914475       0.17920302      -0.01472243       0.02717268       0.01874648
H        0.91278283       4.36694477       2.08993800       0.02006694       0.00380476      -0.03083940
C        0.18135708       4.14667332       1.32205455      -0.00160040       0.00289528      -0.00978764
C       -1.69171705       3.59370263      -0.64719161      -0.05386017       0.00850808       0.03492607
C       -0.60126922       2.75002086      -0.47043193      -0.07374179      -0.01421075       0.03661362
C        0.35090443       3.04157016       0.49945166      -0.04107467      -0.01589352       0.00479425
H       -2.39411658       3.34920791      -1.43324952      -0.06807463       0.01334739       0.04479436
H        1.22511854       2.41224537       0.60694223      -0.04848680      -0.03046857      -0.01331398
H       -1.08939461       5.79711588       1.84249847       0.03608892       0.02929388      -0.00671949
H       -2.73406862       5.32406516       0.05290024       0.00037637       0.04798599       0.02168488
C        2.66292812       1.78856379      -1.54085184       0.06646246      -0.07950996      -0.01596013
C        2.98970019       3.01263790      -2.14544702       0.03365151      -0.06606101      -0.01297884
C        3.43859171       1.37571135      -0.44976032       0.05131032      -0.02362941       0.02103839
C        4.09507683       3.73554186      -1.71744179      -0.00170051      -0.02021027       0.00937570
H        2.37480277       3.40745553      -2.94448413       0.04408807      -0.08226188      -0.02853871
C        4.53780937       2.09808015      -0.02972654       0.01791766       0.01660470       0.03531907
H        3.18131774       0.42948939       0.01453786       0.07122201      -0.02467048       0.02809606
C        4.88988288       3.27843727      -0.67498958      -0.00176700       0.01848002       0.02530893
H        4.34370721       4.66829029      -2.21071383      -0.02616431      -0.01354149       0.00832217
H        5.14584507       1.71268583       0.78001550       0.01330870       0.04496818       0.05307798
H        5.77403917       3.82493130      -0.37558389      -0.01851469       0.04473139       0.02825627
C        1.42588236       0.86826574      -3.39676045       0.01435227      -0.01035510      -0.02461070
H        1.26073074       1.82633838      -3.90178769      -0.04849562       0.03721745       0.07836396
H        2.29559565       0.38676419      -3.85930692      -0.01586932       0.04825998      -0.15276502
H        0.54965266       0.25306895      -3.59478538       0.00746359      -0.00529773      -0.01343913
