97
Properties=species:S:1:pos:R:3:forces:R:3 spin=1 charge=0 energy=-90906.32397193134 pbc="F F F"
C       -0.73586605       1.46219058      -1.17714769      -0.00184819      -0.00368513       0.00608663
O       -1.47515530       1.39755857      -2.13061318      -0.00826862      -0.00415405       0.00300943
Ni       0.44964432       0.09879401      -0.85002895       0.00102948      -0.00147824      -0.00367153
C       -0.52767872      -1.07690980       0.27948703       0.00148369       0.00218676      -0.00232531
N        0.18347399      -2.01293512       0.93022141       0.00147116       0.00321801      -0.00075700
N       -1.81766260      -1.34317323       0.49071342       0.00113838       0.00292183      -0.00183432
C       -0.62949451      -2.98440194       1.66240313       0.00126250       0.00439612       0.00039850
C        1.61151738      -2.02716438       0.96604027       0.00161573       0.00231689      -0.00078785
C       -2.04658107      -2.58046309       1.24636887       0.00123692       0.00447838       0.00047732
C       -2.92237970      -0.58386441      -0.00672670       0.00083284       0.00235214      -0.00212438
H       -0.37247718      -4.00131004       1.36176776       0.00085662       0.00406497       0.00120735
H       -0.46287813      -2.89320682       2.73825450       0.00163245       0.00546118       0.00020894
C        2.30726500      -2.65294592      -0.07437116       0.00159351       0.00260757      -0.00107599
C        2.26652079      -1.42343926       2.04661881       0.00193384       0.00007864       0.00039885
H       -2.52227740      -3.32442316       0.60333013       0.00036604       0.00369337       0.00204859
H       -2.70408544      -2.39374979       2.09541859       0.00195754       0.00651176       0.00052810
C       -3.53196867       0.33328980       0.85438954       0.00126048       0.00349674      -0.00280431
C       -3.36720031      -0.80020191      -1.31324676      -0.00058660       0.00052446      -0.00145405
C        3.69781410      -2.63093569      -0.02931514       0.00163803      -0.00008690       0.00036027
C        1.59229048      -3.37834640      -1.19845496       0.00191845       0.00397841      -0.00222713
C        3.65547574      -1.44788588       2.06089672       0.00186149      -0.00320548       0.00205844
C        1.50334785      -0.75643668       3.17445800       0.00250276       0.00135310       0.00006282
C       -4.59776930       1.07584722       0.35940826       0.00058394       0.00251842      -0.00286527
C       -3.09523204       0.49787104       2.29903570       0.00065941       0.00342281      -0.00253648
C       -4.43785214      -0.03839986      -1.76324920      -0.00143125      -0.00058917      -0.00134742
C       -2.73552970      -1.84517750      -2.21303007      -0.00129019      -0.00046871      -0.00083911
C        4.36557529      -2.03530982       1.02598847       0.00179461      -0.00346775       0.00216511
H        4.26450711      -3.08633604      -0.83158217       0.00151207      -0.00020062       0.00036883
C        1.79430129      -4.89069470      -1.06040526       0.00037046       0.00377889      -0.00196465
C        2.03416328      -2.88664079      -2.57688631       0.00399388       0.00262969      -0.00209954
H        0.52355546      -3.17380835      -1.10411447       0.00206624       0.00527035      -0.00338261
H        4.19042452      -0.98049845       2.87858075       0.00197831      -0.00586877       0.00351631
C        1.95780724       0.68744021       3.39144206       0.00484293       0.00060947       0.00057292
C        1.63401278      -1.56465456       4.46830853       0.00042959       0.00136222       0.00028303
H        0.44807967      -0.72342869       2.89423933       0.00272290       0.00325556      -0.00057443
C       -5.04205871       0.89648865      -0.93963527      -0.00082670       0.00044450      -0.00207596
H       -5.08452964       1.80337886       0.99747017       0.00072002       0.00299853      -0.00329277
C       -4.17638380      -0.02887096       3.24859651       0.00097899      -0.00040561      -0.00422341
C       -2.74285913       1.94459227       2.64237028      -0.00311832       0.00347071       0.00121994
H       -2.19164598      -0.09852455       2.44790579       0.00198888       0.00536598      -0.00287805
H       -4.79401684      -0.16526422      -2.77751134      -0.00261612      -0.00227442      -0.00071900
C       -2.43479551      -1.31604086      -3.61543033      -0.00300115      -0.00305230      -0.00222817
C       -3.63066622      -3.08651866      -2.29146745      -0.00124599      -0.00067584       0.00199518
H       -1.78238342      -2.13824118      -1.76709681      -0.00070550       0.00044440      -0.00155912
H        5.44780223      -2.02018603       1.03865710       0.00182837      -0.00656086       0.00378864
H        1.46038624      -5.25362476      -0.08602732      -0.00086458       0.00394116      -0.00233681
H        2.84978477      -5.15039874      -1.16530202       0.00033652       0.00319494      -0.00088380
H        1.23844673      -5.42310304      -1.83422791       0.00093648       0.00429088      -0.00271131
H        1.91690187      -1.80514669      -2.66383519       0.00717749       0.00289790      -0.00257856
H        1.43933637      -3.36956431      -3.35462380       0.00282255       0.00391588      -0.00205824
H        3.08220468      -3.12806193      -2.76570076       0.00330834      -0.00068351      -0.00175313
H        1.91121708       1.25927155       2.46511858       0.00702951       0.00097008       0.00064793
H        2.98443709       0.72921733       3.76038688       0.00442819      -0.00125693       0.00199566
H        1.31937844       1.17676885       4.12938319       0.00475254       0.00155120      -0.00008960
H        1.30301224      -2.59647691       4.33580415      -0.00138714       0.00190979       0.00043425
H        1.04183799      -1.11236273       5.26587099       0.00095578       0.00268029      -0.00010126
H        2.67476787      -1.59426447       4.79773877       0.00022060      -0.00045788       0.00076379
H       -5.86753854       1.48931577      -1.31297934      -0.00168446      -0.00061221      -0.00197868
H       -4.44300597      -1.06468080       3.02922225       0.00320954      -0.00059914      -0.00597508
H       -5.08642488       0.56829174       3.16130808      -0.00014463      -0.00211041      -0.00439273
H       -3.83704700       0.02832646       4.28479922      -0.00011057      -0.00105703      -0.00383097
H       -1.96051839       2.32783999       1.99003049      -0.00152319       0.00643463       0.00497533
H       -2.39322829       2.01012907       3.67499777      -0.00676999       0.00160238       0.00256746
H       -3.61271701       2.59723915       2.54559943      -0.00394014       0.00222239      -0.00000341
H       -1.86489114      -0.39051593      -3.56264398      -0.00151630      -0.00378440      -0.00507892
H       -3.35434682      -1.12313761      -4.17230614      -0.00361907      -0.00295884      -0.00119983
H       -1.86483987      -2.05937281      -4.17690645      -0.00502593      -0.00498279      -0.00177538
H       -3.84229474      -3.50289682      -1.30462447      -0.00012188       0.00080195       0.00285881
H       -3.15869220      -3.86163556      -2.89859411      -0.00184196      -0.00153524       0.00261311
H       -4.58818056      -2.83379209      -2.75241810      -0.00177961      -0.00144705       0.00267788
N        1.68249203       0.78159630      -2.02705765       0.00310936      -0.00766567      -0.00576911
C       -0.77011074       4.96084947       1.28294058       0.00592656      -0.00004142      -0.00111046
C       -1.75383256       4.77133105       0.31812431      -0.00166391      -0.00381316       0.00728816
H        1.02682140       4.18874636       2.16924684       0.01109928       0.00191023      -0.00983077
C        0.25228159       4.03287547       1.42879584       0.00585521      -0.00031392      -0.00381962
C       -1.72499709       3.64468806      -0.48655500      -0.00715298      -0.00669865       0.01077115
C       -0.71448401       2.70058038      -0.32514391      -0.00512249      -0.00499091       0.00550596
C        0.27882949       2.90388552       0.62229895       0.00021317      -0.00326650      -0.00041419
H       -2.47691222       3.46921148      -1.24549641      -0.01340471      -0.00919982       0.01726786
H        1.07814800       2.17807847       0.71053240       0.00034881      -0.00323262      -0.00310491
H       -0.79950669       5.83758578       1.91782744       0.01195997       0.00355709      -0.00568669
H       -2.54142718       5.50460164       0.19681717      -0.00245533      -0.00424659       0.01064183
C        2.74456494       1.55812054      -1.59533095       0.00382242      -0.00977680      -0.00463694
C        3.25659402       2.65387726      -2.30850171       0.00907869      -0.01344544      -0.00656648
C        3.38207753       1.22851306      -0.38478924      -0.00212376      -0.00605337      -0.00015000
C        4.34924578       3.36644128      -1.83189697       0.00210150      -0.00751800       0.00048437
H        2.79525895       2.96244884      -3.23573086       0.01760013      -0.02056505      -0.01319947
C        4.47096166       1.93999758       0.07871338      -0.00991416       0.00072434       0.00741578
H        3.02234566       0.36566653       0.16565080      -0.00214583      -0.00663200      -0.00099226
C        4.97263102       3.01948763      -0.64384605      -0.00932495       0.00172237       0.00916138
H        4.71549996       4.20993312      -2.40539997       0.00487263      -0.00930787      -0.00036095
H        4.94961490       1.63637714       1.00339787      -0.01702485       0.00637092       0.01304579
H        5.83578782       3.56903509      -0.29201323      -0.01766854       0.00963520       0.01728294
C        1.28471981       0.96912996      -3.41054666      -0.00387177       0.00350654      -0.00210504
H        0.90674088       1.97621396      -3.62894611      -0.02266082       0.00029951       0.01473425
H        2.12739916       0.77297094      -4.08463930      -0.00321381       0.02871306      -0.00840739
H        0.48299968       0.27273758      -3.65222533       0.00778845      -0.00763725      -0.00933863
