97
Properties=species:S:1:pos:R:3:forces:R:3 spin=1 charge=0 energy=-90906.08335036457 pbc="F F F"
C       -0.04755962       1.85348044      -1.75482154      -0.00034516       0.00296601      -0.00184035
O       -0.85504464       1.66108228      -2.67304140      -0.00105599       0.00357400      -0.00117932
Ni       0.42170178       0.17379702      -0.70163740      -0.00180233       0.00178078      -0.00027447
C       -0.47879962      -1.10917794       0.30852977       0.00007184      -0.00006293      -0.00067909
N        0.17866529      -2.15011033       0.86772494       0.00008405       0.00031077       0.00002975
N       -1.78386964      -1.30194052       0.56271030       0.00006124      -0.00067101      -0.00112067
C       -0.67787434      -3.04900238       1.63827570       0.00022372       0.00120356       0.00120180
C        1.60162297      -2.23078105       0.86798862      -0.00005831      -0.00009551       0.00057448
C       -2.07178931      -2.58504374       1.20700819       0.00022529       0.00002795       0.00021025
C       -2.82806573      -0.44965000       0.09053568       0.00025587      -0.00072311      -0.00123488
H       -0.48087532      -4.09214208       1.38655924       0.00071622       0.00088462       0.00298447
H       -0.50801599      -2.91903043       2.71244330      -0.00006220       0.00306533       0.00103933
C        2.23447417      -2.97114447      -0.13573486      -0.00007530      -0.00052626       0.00087994
C        2.32728341      -1.55130459       1.85234068      -0.00036509      -0.00035470       0.00093083
H       -2.53139552      -3.27181398       0.48981960       0.00070685      -0.00105390       0.00094607
H       -2.75858506      -2.45522112       2.04419514      -0.00007778       0.00083775      -0.00016347
C       -3.38291132       0.47291147       0.98138668       0.00085034      -0.00033065      -0.00135572
C       -3.27651290      -0.57155735      -1.22866394       0.00035073      -0.00095212      -0.00117893
C        3.62488656      -2.97864236      -0.16849001      -0.00007683      -0.00117193       0.00157721
C        1.44535039      -3.74843319      -1.17007939      -0.00030493       0.00055332       0.00015264
C        3.71622792      -1.59112316       1.78803314      -0.00034902      -0.00126989       0.00180267
C        1.64226476      -0.79902999       2.97610730      -0.00100985       0.00144287      -0.00062307
C       -4.38356229       1.31645603       0.51252176       0.00137783       0.00018117      -0.00156036
C       -2.91836134       0.57604349       2.42083230       0.00129132      -0.00118504      -0.00145503
C       -4.27730133       0.29306159      -1.65635409       0.00092910      -0.00043810      -0.00147451
C       -2.75011337      -1.64837543      -2.15762626       0.00023376      -0.00168352      -0.00041451
C        4.36149772      -2.28750842       0.77903240      -0.00026804      -0.00166344       0.00209654
H        4.13828142      -3.52894262      -0.94786184       0.00007728      -0.00125682       0.00170565
C        1.77589521      -5.24092504      -1.10317097       0.00007523       0.00052901      -0.00287506
C        1.67057001      -3.19157339      -2.57575551      -0.00147995       0.00304518       0.00095304
H        0.38556503      -3.62656778      -0.93878740      -0.00021319      -0.00023184       0.00098974
H        4.30095840      -1.06611459       2.53417660      -0.00044500      -0.00155296       0.00206536
C        2.01762048       0.68224105       2.97480843      -0.00092427       0.00142359      -0.00335703
C        1.95545566      -1.45069844       4.32551534      -0.00246809       0.00426120       0.00104874
H        0.56452928      -0.85473144       2.81232782      -0.00088748       0.00134969      -0.00136229
C       -4.82169117       1.23367222      -0.79786736       0.00152824       0.00011552      -0.00164150
H       -4.81788687       2.05284823       1.17824923       0.00172175       0.00056491      -0.00176299
C       -4.06774442       0.32216036       3.39814377       0.00122371      -0.00014139      -0.00129278
C       -2.25610333       1.92716450       2.68193715       0.00376892      -0.00249743      -0.00107218
H       -2.16094249      -0.19346983       2.58508982       0.00014549      -0.00238082      -0.00187383
H       -4.63280766       0.23322333      -2.67719466       0.00100211      -0.00033985      -0.00150956
C       -2.38169708      -1.10934531      -3.53926332      -0.00087368      -0.00307055      -0.00122639
C       -3.77831097      -2.77841524      -2.28105681       0.00091473      -0.00254298       0.00179087
H       -1.83920389      -2.05662575      -1.71405161       0.00077966      -0.00062854      -0.00058093
H        5.44345423      -2.29844477       0.73560221      -0.00023021      -0.00224429       0.00265197
H        1.61184386      -5.63866076      -0.09989394      -0.00098205      -0.00191757      -0.00403774
H        2.81908315      -5.42645978      -1.36674383       0.00036206       0.00132739      -0.00226213
H        1.15165597      -5.80137210      -1.80136562       0.00093550       0.00211319      -0.00490706
H        1.37972251      -2.14067990      -2.62142396      -0.00066099       0.00335623       0.00337055
H        1.07910131      -3.74651116      -3.30687598      -0.00291295       0.00498011       0.00061565
H        2.72103211      -3.26976146      -2.86600196      -0.00189306       0.00261921      -0.00044695
H        1.74121101       1.14381609       2.02575635       0.00188981      -0.00110883      -0.00543243
H        3.09068823       0.82114388       3.12662968      -0.00135912       0.00171725      -0.00050291
H        1.49516506       1.20753258       3.77707387      -0.00338458       0.00353991      -0.00633735
H        1.68324901      -2.50807523       4.32904991      -0.00474753       0.00485292       0.00391752
H        1.41047547      -0.95214412       5.12908678      -0.00160518       0.00757184      -0.00041254
H        3.02170025      -1.38422176       4.55250282      -0.00238906       0.00265324       0.00117754
H       -5.59550535       1.90344502      -1.15207697       0.00202815       0.00056553      -0.00191739
H       -4.53351031      -0.64995051       3.22428349       0.00006953       0.00049259      -0.00176673
H       -4.84411824       1.08312743       3.29761971       0.00208611       0.00081686      -0.00066068
H       -3.70601270       0.35146885       4.42792762       0.00155444      -0.00124364      -0.00137221
H       -1.42793852       2.09191188       1.99239156       0.00401895      -0.00379167      -0.00115447
H       -1.87537422       1.97919684       3.70496047       0.00411074      -0.00375760      -0.00112479
H       -2.96783219       2.74447597       2.54643598       0.00530289      -0.00107897      -0.00054689
H       -1.71080297      -0.25510532      -3.45815877      -0.00160348      -0.00231395      -0.00256251
H       -3.27046812      -0.79169643      -4.08978831      -0.00133808      -0.00468625      -0.00140006
H       -1.90185609      -1.89553070      -4.12719344      -0.00027907      -0.00337083      -0.00033053
H       -4.05484091      -3.18851480      -1.30756205       0.00362819      -0.00291394       0.00239986
H       -3.38648155      -3.58921811      -2.89885467       0.00017544      -0.00218179       0.00084645
H       -4.69205156      -2.40808888      -2.75184514      -0.00059900      -0.00335416       0.00405615
N        1.31687746       1.35852223      -1.92343721      -0.00148316       0.00091030      -0.00159028
C       -1.15490605       4.90055649       1.07917753       0.00221352      -0.00003617       0.00287605
C       -1.98451159       4.51980077       0.03414038       0.00084005       0.00014553       0.00390439
H        0.71658996       4.53814789       2.06542910       0.00490448       0.00168844      -0.00156880
C        0.06625065       4.26257561       1.24436474       0.00340285       0.00141695      -0.00027786
C       -1.58602746       3.52957710      -0.84842482       0.00037571       0.00154301       0.00211506
C       -0.35058862       2.89471704      -0.70450525       0.00113673       0.00235874      -0.00060536
C        0.46372542       3.26224392       0.36935237       0.00285459       0.00262259      -0.00188761
H       -2.21726483       3.22681789      -1.67243495      -0.00075701       0.00191012       0.00285578
H        1.41379314       2.77875840       0.53688668       0.00398130       0.00413768      -0.00403617
H       -1.46035254       5.68126978       1.76437584       0.00245961      -0.00134833       0.00447827
H       -2.94580123       5.00025575      -0.10112610      -0.00000177      -0.00089242       0.00624765
C        2.47513551       2.10649864      -1.50154035      -0.00077551      -0.00018461      -0.00178948
C        2.68837234       3.38444995      -1.99770761      -0.00171212       0.00160919       0.00242420
C        3.40007499       1.51634490      -0.65320329      -0.00026502      -0.00252783      -0.00400481
C        3.82306186       4.08676195      -1.62094262      -0.00252989       0.00140474       0.00553206
H        1.95493646       3.82645596      -2.66159247      -0.00219448       0.00369020       0.00435656
C        4.53497854       2.22250925      -0.27993411      -0.00089860      -0.00296555      -0.00134492
H        3.21023093       0.51510587      -0.27887378       0.00012705      -0.00381801      -0.00724498
C        4.74628863       3.50843025      -0.75991197      -0.00226763      -0.00084869       0.00371247
H        3.98642444       5.08718899      -2.00013472      -0.00367623       0.00319054       0.00980944
H        5.25333856       1.76720517       0.39021967      -0.00071798      -0.00479460      -0.00279064
H        5.63091779       4.05865322      -0.46666319      -0.00314379      -0.00086127       0.00643316
C        1.56277858       0.74093654      -3.24232609      -0.00223992      -0.00232865      -0.00015958
H        1.66885439       1.51540181      -4.00620691      -0.00032117      -0.00440069      -0.00198535
H        2.48239244       0.16120526      -3.17795691      -0.00353159      -0.00419533       0.00163330
H        0.72840912       0.09995308      -3.50564431      -0.00343028      -0.00136033       0.00117668
