97
Properties=species:S:1:pos:R:3:forces:R:3 spin=1 charge=0 energy=-90906.34056300342 pbc="F F F"
C       -0.77653036       1.45394030      -1.13895170      -0.00046224      -0.00203203       0.00277525
O       -1.53890503       1.39795860      -2.07427035      -0.00437440      -0.00170487      -0.00028053
Ni       0.41965998       0.09124333      -0.85118622       0.00029607      -0.00092423      -0.00305064
C       -0.54415848      -1.08442655       0.28366809       0.00100091       0.00146573      -0.00169737
N        0.17784672      -2.00115092       0.94955516       0.00095789       0.00192926      -0.00091312
N       -1.83133607      -1.36805785       0.48775777       0.00074728       0.00234686      -0.00070229
C       -0.62496350      -2.98579476       1.67560764       0.00076416       0.00332821       0.00067348
C        1.60613694      -1.99429938       0.99378358       0.00107777       0.00117486      -0.00088042
C       -2.04692151      -2.59652688       1.26152179       0.00078104       0.00334034       0.00068817
C       -2.94477072      -0.62660283      -0.01830283       0.00064940       0.00195958      -0.00100151
H       -0.35599915      -3.99774777       1.36874795       0.00027283       0.00283341       0.00194429
H       -0.46086740      -2.89961305       2.75175186       0.00115356       0.00480465       0.00048715
C        2.31921218      -2.58871706      -0.05374514       0.00109199       0.00119084      -0.00094849
C        2.24521267      -1.39994922       2.08954346       0.00132064      -0.00029100      -0.00012540
H       -2.52244289      -3.35216374       0.63248167       0.00028867       0.00287458       0.00162332
H       -2.69952523      -2.40204347       2.11239177       0.00116009       0.00458005       0.00067663
C       -3.56748887       0.29155096       0.83255166       0.00077330       0.00266372      -0.00148822
C       -3.38392116      -0.85931566      -1.32362499      -0.00015886       0.00070078      -0.00059738
C        3.70903720      -2.55202872       0.00540154       0.00109607      -0.00090683       0.00016235
C        1.62459857      -3.30123952      -1.19898189       0.00141925       0.00230060      -0.00187907
C        3.63410597      -1.41158302       2.11760456       0.00126168      -0.00266982       0.00101315
C        1.46590732      -0.75055050       3.21684463       0.00187391       0.00068380      -0.00026614
C       -4.64384511       1.01321661       0.32964123       0.00030816       0.00188286      -0.00159071
C       -3.13754404       0.47273933       2.27721580       0.00043276       0.00278889      -0.00132364
C       -4.46723907      -0.12003501      -1.78094289      -0.00071116      -0.00013062      -0.00057700
C       -2.72812199      -1.89280644      -2.21886530      -0.00058106      -0.00002732      -0.00010832
C        4.36038605      -1.97289002       1.07965516       0.00125775      -0.00315124       0.00127940
H        4.28843786      -2.98260999      -0.80124981       0.00104866      -0.00127690       0.00030657
C        1.79460104      -4.81661214      -1.05042031      -0.00013147       0.00214881      -0.00169844
C        2.11612391      -2.82429509      -2.56581753       0.00342235       0.00116937      -0.00159640
H        0.55753584      -3.07629729      -1.13778310       0.00160993       0.00351959      -0.00300839
H        4.15626546      -0.95340077       2.94861587       0.00135513      -0.00445321       0.00197679
C        1.93332980       0.68224527       3.47885547       0.00325861       0.00029429      -0.00029934
C        1.56022115      -1.58737903       4.49579578       0.00111855       0.00100578       0.00001088
H        0.41745270      -0.69825934       2.91423740       0.00193762       0.00174028      -0.00030819
C       -5.08649778       0.81290420      -0.96686924      -0.00051317       0.00047250      -0.00108899
H       -5.14143773       1.74021905       0.95972146       0.00025640       0.00214820      -0.00190465
C       -4.19764220      -0.10372114       3.22222434       0.00063211       0.00093470      -0.00220564
C       -2.84992078       1.93170581       2.62976972      -0.00159785       0.00270998       0.00065530
H       -2.20877931      -0.08423369       2.42462647       0.00107709       0.00387445      -0.00142567
H       -4.82071762      -0.26206995      -2.79413592      -0.00143994      -0.00132239      -0.00017371
C       -2.43907660      -1.35628587      -3.62098983      -0.00103753      -0.00161343      -0.00085129
C       -3.59216988      -3.15587603      -2.29509648      -0.00086851       0.00008027       0.00118318
H       -1.76849847      -2.16145761      -1.77173474      -0.00045036       0.00020483      -0.00031202
H        5.44223215      -1.94762075       1.10363107       0.00126120      -0.00551970       0.00248237
H        1.42294436      -5.17105151      -0.08663744      -0.00123417       0.00237968      -0.00204573
H        2.84886057      -5.09316237      -1.11934439      -0.00023130       0.00145854      -0.00076408
H        1.25574552      -5.34188810      -1.84094917       0.00029698       0.00262709      -0.00229405
H        2.03154925      -1.74001466      -2.65612503       0.00546205       0.00126294      -0.00212179
H        1.52580136      -3.29034674      -3.35714509       0.00312194       0.00188145      -0.00181841
H        3.16005392      -3.09876220      -2.73039681       0.00299056      -0.00097613      -0.00080203
H        1.93436566       1.27316262       2.56317311       0.00356789       0.00054405      -0.00015880
H        2.94410130       0.70033745       3.89096876       0.00335003      -0.00069679      -0.00045920
H        1.27324412       1.16787716       4.19991065       0.00385865       0.00068950      -0.00002266
H        1.22129689      -2.61261315       4.33627142       0.00020284       0.00125276       0.00043998
H        0.95705051      -1.14475719       5.29060787       0.00160104       0.00189135      -0.00012282
H        2.59386910      -1.63540217       4.84494604       0.00108672       0.00021289       0.00000002
H       -5.92138632       1.38866077      -1.34590836      -0.00113343      -0.00038343      -0.00103640
H       -4.42409461      -1.14720234       2.99467703       0.00185318       0.00083684      -0.00288014
H       -5.13023434       0.45784313       3.13626006       0.00006884      -0.00001258      -0.00250790
H       -3.86276806      -0.04104175       4.25953306       0.00000855       0.00086597      -0.00200957
H       -2.08507139       2.35518152       1.98133233      -0.00025407       0.00408908       0.00325328
H       -2.50421338       2.00472754       3.66314691      -0.00426666       0.00165383       0.00163875
H       -3.74827835       2.54545637       2.53913694      -0.00180670       0.00220358      -0.00072846
H       -1.89854494      -0.41294105      -3.56655609       0.00012985      -0.00219308      -0.00240379
H       -3.36210745      -1.19242952      -4.18138016      -0.00123449      -0.00123391      -0.00042729
H       -1.84387224      -2.08109250      -4.18038209      -0.00232402      -0.00297505      -0.00046876
H       -3.79010796      -3.57670863      -1.30728668      -0.00059049       0.00089415       0.00158152
H       -3.10267205      -3.91967001      -2.90270556      -0.00123724      -0.00043482       0.00157422
H       -4.55721513      -2.92781960      -2.75319586      -0.00097374      -0.00005272       0.00134598
N        1.64148065       0.78838785      -2.03391371       0.00150805      -0.00447539      -0.00412813
C       -0.69403602       4.94520138       1.33150673       0.00204029      -0.00152985       0.00015394
C       -1.68248826       4.79467939       0.36449545      -0.00261671      -0.00378827       0.00520862
H        1.06575215       4.09936471       2.22567163       0.00600271       0.00037360      -0.00581270
C        0.28716874       3.97486128       1.48344884       0.00276631      -0.00098897      -0.00219713
C       -1.69711903       3.66770917      -0.44037184      -0.00514841      -0.00490845       0.00661158
C       -0.72419945       2.68515455      -0.27775929      -0.00323035      -0.00329053       0.00278157
C        0.27036608       2.84647181       0.67628915       0.00005630      -0.00224575      -0.00075119
H       -2.45408942       3.52264064      -1.20070240      -0.00892899      -0.00644617       0.01046766
H        1.03846932       2.08801151       0.76734449       0.00073977      -0.00163674      -0.00281064
H       -0.68641545       5.82521570       1.96246592       0.00506813       0.00003982      -0.00202561
H       -2.43880708       5.55971727       0.24090591      -0.00380249      -0.00462029       0.00781467
C        2.73746032       1.51390243      -1.60554247       0.00156910      -0.00549525      -0.00295329
C        3.33374771       2.54610340      -2.34867292       0.00475109      -0.00740706      -0.00308038
C        3.32831585       1.19687333      -0.36722573      -0.00247215      -0.00338964      -0.00030276
C        4.45482513       3.21261439      -1.87109294       0.00060904      -0.00378538       0.00164077
H        2.91862256       2.83959263      -3.30210311       0.00995449      -0.01135599      -0.00656259
C        4.44251682       1.86499788       0.09856661      -0.00731159       0.00089709       0.00480533
H        2.90670372       0.38052474       0.20992945      -0.00289006      -0.00394346      -0.00137019
C        5.02407429       2.88440031      -0.65126228      -0.00649489       0.00170636       0.00645571
H        4.88636794       4.00602235      -2.47007339       0.00259186      -0.00474843       0.00183791
H        4.87556943       1.57534832       1.04992718      -0.01206416       0.00426503       0.00803730
H        5.90452941       3.40235042      -0.29458980      -0.01143032       0.00656088       0.01147351
C        1.22587539       1.01958424      -3.40487881      -0.00129626       0.00063859      -0.00231806
H        0.87778349       2.04506461      -3.58739229      -0.01011970      -0.00088613       0.00554187
H        2.04738524       0.81621300      -4.10254187      -0.00078472       0.01235489      -0.00498454
H        0.39824982       0.35515797      -3.64781595       0.00398445      -0.00480832      -0.00593028
