97
Properties=species:S:1:pos:R:3:forces:R:3 spin=1 charge=0 energy=-90906.34245127857 pbc="F F F"
C       -0.78969150       1.45208009      -1.12605424      -0.00016167      -0.00155434       0.00160958
O       -1.55922509       1.39932255      -2.05558473      -0.00290383      -0.00103671      -0.00094835
Ni       0.40959335       0.08951376      -0.85129090       0.00019057      -0.00080131      -0.00273347
C       -0.54965875      -1.08669954       0.28500042       0.00085225       0.00121297      -0.00143931
N        0.17589958      -1.99728652       0.95544027       0.00079672       0.00144677      -0.00096569
N       -1.83583556      -1.37616717       0.48682988       0.00065019       0.00217366      -0.00032740
C       -0.62345970      -2.98630060       1.67946717       0.00056854       0.00292353       0.00073429
C        1.60420062      -1.98349391       1.00275618       0.00090428       0.00074563      -0.00091439
C       -2.04697774      -2.60189117       1.26615404       0.00061260       0.00293841       0.00068866
C       -2.95218802      -0.64081595      -0.02211096       0.00058855       0.00185914      -0.00064474
H       -0.35055358      -3.99656614       1.37055916       0.00004938       0.00235653       0.00213375
H       -0.46014322      -2.90177064       2.75568238       0.00094586       0.00450466       0.00054274
C        2.32309134      -2.56765563      -0.04672895       0.00092411       0.00065785      -0.00089629
C        2.23787407      -1.39221493       2.10347103       0.00109566      -0.00044265      -0.00030347
H       -2.52235251      -3.36119506       0.64155472       0.00027599       0.00259646       0.00133476
H       -2.69796101      -2.40511403       2.11765300       0.00084476       0.00385169       0.00063256
C       -3.57961477       0.27734518       0.82536634       0.00061841       0.00235188      -0.00104251
C       -3.38927329      -0.87895744      -1.32704961       0.00003803       0.00079481      -0.00033214
C        3.71257973      -2.52612248       0.01725224       0.00093392      -0.00126852       0.00012909
C        1.63535850      -3.27575835      -1.19894113       0.00124043       0.00170597      -0.00177496
C        3.62670405      -1.39958606       2.13623898       0.00107944      -0.00253641       0.00069191
C        1.45324846      -0.74867628       3.23052945       0.00164290       0.00044947      -0.00040393
C       -4.65939304       0.99195754       0.31977743       0.00014982       0.00162709      -0.00116030
C       -3.15210724       0.46400629       2.27003910       0.00032010       0.00255036      -0.00092192
C       -4.47674187      -0.14729224      -1.78683407      -0.00044953       0.00006294      -0.00035899
C       -2.72556603      -1.90863546      -2.22069297      -0.00029439       0.00015477       0.00010877
C        4.35839622      -1.95233553       1.09760298       0.00106034      -0.00313358       0.00102248
H        4.29622907      -2.94844226      -0.79061988       0.00089848      -0.00175391       0.00033433
C        1.79442665      -4.79203383      -1.04735502      -0.00033360       0.00155066      -0.00166565
C        2.14331081      -2.80375098      -2.56149431       0.00320615       0.00071694      -0.00141990
H        0.56918336      -3.04389789      -1.14876896       0.00144788       0.00291327      -0.00287294
H        4.14452656      -0.94437500       2.97157299       0.00113103      -0.00400985       0.00147933
C        1.92437931       0.68035722       3.50709040       0.00262974       0.00023115      -0.00073809
C        1.53607141      -1.59451340       4.50442248       0.00140869       0.00094306      -0.00007558
H        0.40710711      -0.69026684       2.92090473       0.00163735       0.00113831      -0.00024334
C       -5.10118344       0.78480987      -0.97594332      -0.00041922       0.00045311      -0.00077548
H       -5.16070716       1.71867169       0.94716997       0.00001256       0.00175484      -0.00141313
C       -4.20494929      -0.12811591       3.21366660       0.00042496       0.00142133      -0.00152256
C       -2.88555533       1.92637364       2.62527704      -0.00102641       0.00246531       0.00045827
H       -2.21557185      -0.07996500       2.41710858       0.00073326       0.00327967      -0.00092765
H       -4.82920793      -0.29439831      -2.79965694      -0.00098501      -0.00094560      -0.00003840
C       -2.44040417      -1.36988485      -3.62277724      -0.00034073      -0.00113858      -0.00041810
C       -3.57929308      -3.17868200      -2.29612593      -0.00074182       0.00039850       0.00093744
H       -1.76396047      -2.16921760      -1.77313604      -0.00032167       0.00015323       0.00009896
H        5.44006687      -1.92364669       1.12540416       0.00107187      -0.00527401       0.00210902
H        1.41036907      -5.14357283      -0.08738720      -0.00139493       0.00179236      -0.00202042
H        2.84791073      -5.07428627      -1.10443163      -0.00047541       0.00080597      -0.00081742
H        1.26124932      -5.31485709      -1.84333365       0.00000734       0.00207268      -0.00222909
H        2.06938248      -1.71876074      -2.65258677       0.00489751       0.00075195      -0.00191741
H        1.55478478      -3.26410679      -3.35747488       0.00318031       0.00125260      -0.00174291
H        3.18557440      -3.08898258      -2.71798549       0.00288154      -0.00105919      -0.00049910
H        1.94057624       1.27721926       2.59533294       0.00223013       0.00042198      -0.00061958
H        2.92965297       0.69070920       3.93270399       0.00295164      -0.00035768      -0.00143921
H        1.25755775       1.16490003       4.22263150       0.00342586       0.00042541      -0.00011526
H        1.19503193      -2.61759862       4.33627736       0.00085341       0.00103235       0.00049459
H        0.92919540      -1.15509659       5.29821488       0.00185566       0.00166142      -0.00012145
H        2.56729877      -1.64822486       4.85986504       0.00145688       0.00056763      -0.00024952
H       -5.93911301       1.35483387      -1.35691399      -0.00097974      -0.00035292      -0.00073147
H       -4.41861142      -1.17368612       2.98355474       0.00124675       0.00134492      -0.00182360
H       -5.14443742       0.42192815       3.12821475       0.00006215       0.00079173      -0.00184321
H       -3.87137859      -0.06374329       4.25128210      -0.00004051       0.00153868      -0.00138298
H       -2.12697135       2.36263845       1.97785978       0.00027249       0.00327205       0.00261908
H       -2.54092550       2.00201759       3.65880314      -0.00333379       0.00168615       0.00129609
H       -3.79284332       2.52714780       2.53667932      -0.00101453       0.00225920      -0.00095780
H       -1.90950244      -0.42096014      -3.56795460       0.00078900      -0.00170760      -0.00157677
H       -3.36439614      -1.21547423      -4.18425787      -0.00039017      -0.00062142      -0.00020251
H       -1.83717766      -2.08853526      -4.18147742      -0.00143635      -0.00236533      -0.00004408
H       -3.77266913      -3.60088235      -1.30799173      -0.00075388       0.00100296       0.00120165
H       -3.08411094      -3.93867318      -2.90390166      -0.00104256      -0.00006900       0.00127251
H       -4.54669134      -2.95880563      -2.75325986      -0.00069490       0.00047232       0.00091695
N        1.62823306       0.79123976      -2.03516039       0.00117765      -0.00368082      -0.00352599
C       -0.66891676       4.94008385       1.34777403       0.00074310      -0.00189532       0.00059036
C       -1.65869114       4.80224385       0.38018584      -0.00291613      -0.00370491       0.00456242
H        1.07809299       4.07053060       2.24443255       0.00431084       0.00003669      -0.00446756
C        0.29838796       3.95625489       1.50171899       0.00176283      -0.00109820      -0.00162184
C       -1.68760173       3.67546817      -0.42465533      -0.00447610      -0.00429193       0.00530390
C       -0.72733346       2.68063433      -0.26164550      -0.00256083      -0.00273006       0.00196647
C        0.26729076       2.82830521       0.69451932       0.00002386      -0.00182200      -0.00082352
H       -2.44596674       3.54038047      -1.18543338      -0.00742538      -0.00557073       0.00831302
H        1.02483636       2.05943391       0.78666041       0.00091153      -0.00106162      -0.00269855
H       -0.64901456       5.82090864       1.97732488       0.00275743      -0.00089576      -0.00077699
H       -2.40450034       5.57737961       0.25581428      -0.00422264      -0.00465214       0.00691915
C        2.73513386       1.49969895      -1.60820664       0.00100142      -0.00424361      -0.00235582
C        3.35740413       2.51005400      -2.36039932       0.00342053      -0.00557139      -0.00212461
C        3.31198943       1.18735397      -0.36185602      -0.00241536      -0.00257012      -0.00023609
C        4.48776955       3.16094298      -1.88307430       0.00002223      -0.00256515       0.00185653
H        2.95619555       2.79814532      -3.32135803       0.00759047      -0.00864238      -0.00478786
C        4.43453597       1.84083858       0.10408251      -0.00636291       0.00099447       0.00404102
H        2.87108769       0.38722748       0.22360913      -0.00279709      -0.00311902      -0.00127561
C        5.04087883       2.83939571      -0.65414588      -0.00567568       0.00176969       0.00558686
H        4.93951444       3.93704283      -2.48977546       0.00161458      -0.00316853       0.00226508
H        4.85374785       1.55633894       1.06318458      -0.01027159       0.00364576       0.00657469
H        5.92716280       3.34660755      -0.29652945      -0.00959572       0.00569719       0.00964871
C        1.20815149       1.03553444      -3.40232242      -0.00053246      -0.00026350      -0.00229601
H        0.87422905       2.06749096      -3.57554246      -0.00675780      -0.00133846       0.00304602
H        2.02172179       0.82514821      -4.10717983      -0.00003057       0.00784507      -0.00404449
H        0.36964009       0.38459706      -3.64397600       0.00314265      -0.00421024      -0.00487323
