97
Properties=species:S:1:pos:R:3:forces:R:3 spin=1 charge=0 energy=-90906.34141463459 pbc="F F F"
C       -0.81552782       1.44957345      -1.09959338       0.00027280      -0.00065844      -0.00070261
O       -1.59879799       1.40371891      -2.01778049       0.00020625       0.00009731      -0.00179895
Ni       0.38941338       0.08714267      -0.85111687       0.00014678      -0.00064830      -0.00194565
C       -0.56064473      -1.09084070       0.28757455       0.00057046       0.00066862      -0.00084809
N        0.17195138      -1.98953065       0.96646877       0.00048469       0.00039533      -0.00106090
N       -1.84472349      -1.39209274       0.48497540       0.00047498       0.00184257       0.00041879
C       -0.62040162      -2.98731758       1.68638047       0.00014934       0.00199013       0.00081081
C        1.60016905      -1.96196274       1.02040910       0.00054311      -0.00018735      -0.00095181
C       -2.04695131      -2.61260241       1.27477815       0.00024711       0.00204830       0.00059989
C       -2.96696428      -0.66925638      -0.02976927       0.00051854       0.00166105       0.00005265
H       -0.33963249      -3.99412517       1.37335131      -0.00045349       0.00132072       0.00246228
H       -0.45857998      -2.90613155       2.76270507       0.00045558       0.00377310       0.00064080
C        2.33078766      -2.52585130      -0.03239403       0.00058716      -0.00051861      -0.00079328
C        2.22285260      -1.37686819       2.13097305       0.00067194      -0.00080501      -0.00064709
H       -2.52190357      -3.37894362       0.65875200       0.00026739       0.00202627       0.00058471
H       -2.69470699      -2.41164124       2.12757352       0.00011795       0.00227195       0.00044567
C       -3.60438743       0.24836547       0.81101067       0.00025103       0.00171605      -0.00015774
C       -3.39963078      -0.91825467      -1.33396830       0.00047242       0.00105459       0.00014419
C        3.71945829      -2.47481028       0.04156036       0.00058679      -0.00214823       0.00008197
C        1.65698573      -3.22479110      -1.19853062       0.00085674       0.00048128      -0.00157427
C        3.61148636      -1.37580668       2.17340897       0.00065175      -0.00235721       0.00011096
C        1.42762088      -0.74510507       3.25745912       0.00115977      -0.00004308      -0.00072140
C       -4.69091912       0.94864526       0.29999898      -0.00018487       0.00103071      -0.00027256
C       -3.18209974       0.44591891       2.25572272       0.00008406       0.00204696      -0.00012876
C       -4.49534998      -0.20208449      -1.79873556       0.00016180       0.00047193       0.00002651
C       -2.72024553      -1.94032280      -2.22426162       0.00032895       0.00055744       0.00053623
C        4.35406844      -1.91162808       1.13387942       0.00069400      -0.00323509       0.00059226
H        4.31164238      -2.88062983      -0.76838225       0.00059955      -0.00288352       0.00045401
C        1.79368475      -4.74272572      -1.04169998      -0.00081343       0.00032530      -0.00171287
C        2.19771713      -2.76270273      -2.55185571       0.00276250      -0.00019858      -0.00106323
H        0.59310088      -2.97884324      -1.17041747       0.00111213       0.00168226      -0.00258717
H        4.12049677      -0.92647320       3.01727227       0.00067552      -0.00319800       0.00055008
C        1.90531856       0.67629628       3.56259545       0.00125254       0.00016882      -0.00175933
C        1.48829296      -1.60828730       4.52109857       0.00207315       0.00083383      -0.00016681
H        0.38616047      -0.67486682       2.93437299       0.00097189      -0.00021386      -0.00014191
C       -5.13048416       0.72801538      -0.99423102      -0.00023433       0.00037597      -0.00016971
H       -5.19991758       1.67454681       0.92198859      -0.00059015       0.00081189      -0.00040031
C       -4.22010383      -0.17635271       3.19675477      -0.00014170       0.00243277      -0.00011665
C       -2.95717557       1.91418459       2.61577125       0.00020355       0.00198587       0.00003111
H       -2.23083240      -0.07213935       2.40235469      -0.00000459       0.00196528       0.00008602
H       -4.84560650      -0.35940161      -2.81079098       0.00003300      -0.00010405       0.00014404
C       -2.44292181      -1.39759652      -3.62641963       0.00113810      -0.00020124       0.00038986
C       -3.55331981      -3.22400066      -2.29787208      -0.00043668       0.00106459       0.00049317
H       -1.75489796      -2.18477087      -1.77583118       0.00002419       0.00008849       0.00091275
H        5.43531045      -1.87607137       1.16947683       0.00067943      -0.00498109       0.00147180
H        1.38499883      -5.08839246      -0.08983335      -0.00178516       0.00052023      -0.00207380
H        2.84505660      -5.03658779      -1.07523381      -0.00104583      -0.00061398      -0.00107357
H        1.27191606      -5.26044315      -1.84848278      -0.00068921       0.00098377      -0.00222462
H        2.14495584      -1.67659206      -2.64402295       0.00382401      -0.00017907      -0.00141445
H        1.61320268      -3.21146113      -3.35734550       0.00322967       0.00010960      -0.00158522
H        3.23617966      -3.06925771      -2.69212788       0.00261584      -0.00123543       0.00007524
H        1.95083079       1.28456095       2.65924529      -0.00068248       0.00020986      -0.00181314
H        2.89933826       0.67135756       4.01398633       0.00209919       0.00052557      -0.00360367
H        1.22567414       1.15877456       4.26732910       0.00240115      -0.00009220      -0.00046992
H        1.14376040      -2.62715665       4.33622943       0.00233029       0.00059371       0.00069621
H        0.87392079      -1.17527003       5.31268485       0.00244387       0.00119711      -0.00010910
H        2.51460601      -1.67274663       4.88879051       0.00231545       0.00143195      -0.00072790
H       -5.97442312       1.28639549      -1.37913243      -0.00071992      -0.00034710      -0.00015636
H       -4.40896111      -1.22549269       2.96171976      -0.00016456       0.00234870       0.00029753
H       -5.17257425       0.35109211       3.11243020      -0.00006877       0.00250114      -0.00049828
H       -3.88889533      -0.10874876       4.23490322      -0.00028827       0.00291099      -0.00012467
H       -2.21182100       2.37523231       1.96995307       0.00147906       0.00160631       0.00128631
H       -2.61434688       1.99534245       3.64943457      -0.00137226       0.00178663       0.00058883
H       -3.88160796       2.48884874       2.53127936       0.00065604       0.00247525      -0.00141662
H       -1.93097579      -0.43804415      -3.57121452       0.00230878      -0.00080941      -0.00002339
H       -3.36860346      -1.26177342      -4.18990312       0.00138551       0.00067671       0.00021557
H       -1.82429228      -2.10407495      -4.18370737       0.00031444      -0.00124599       0.00078164
H       -3.73752454      -3.64870099      -1.30904923      -0.00106750       0.00134652       0.00049683
H       -3.04697446      -3.97636439      -2.90595061      -0.00066971       0.00067734       0.00077364
H       -4.52522183      -3.02050972      -2.75303624      -0.00012059       0.00161146       0.00007901
N        1.60245169       0.79750149      -2.03640657       0.00070492      -0.00234872      -0.00221556
C       -0.61865897       4.93007561       1.38060441      -0.00185757      -0.00236964       0.00154749
C       -1.61090000       4.81709529       0.41226350      -0.00349135      -0.00344377       0.00335324
H        1.10229447       4.01429553       2.28194733       0.00095154      -0.00036912      -0.00176413
C        0.32055709       3.92012938       1.53850746      -0.00021385      -0.00112001      -0.00043232
C       -1.66827369       3.69106008      -0.39226234      -0.00310303      -0.00308059       0.00278015
C       -0.73348033       2.67241769      -0.22852431      -0.00117628      -0.00161611       0.00044752
C        0.26088757       2.79333128       0.73161022       0.00003819      -0.00089113      -0.00089592
H       -2.42913176       3.57568135      -1.15379505      -0.00439196      -0.00390335       0.00415717
H        0.99704091       2.00426338       0.82607382       0.00131671       0.00018465      -0.00244948
H       -0.57410979       5.81217986       2.00707491      -0.00189494      -0.00248743       0.00172382
H       -2.33552976       5.61177122       0.28632725      -0.00505546      -0.00458898       0.00519750
C        2.73057485       1.47171842      -1.61263316       0.00002265      -0.00193356      -0.00114039
C        3.40223310       2.43701193      -2.38209692       0.00091435      -0.00206798      -0.00047148
C        3.28122819       1.16978183      -0.35151382      -0.00207421      -0.00095032       0.00004809
C        4.55080365       3.05628089      -1.90599551      -0.00119701      -0.00007483       0.00199183
H        3.02712834       2.71334212      -3.35687915       0.00303127      -0.00356385      -0.00174186
C        4.42021731       1.79374216       0.11395239      -0.00442505       0.00127163       0.00265054
H        2.80356528       0.40326903       0.24992122      -0.00223816      -0.00149765      -0.00079011
C        5.07383812       2.74908530      -0.66044265      -0.00418209       0.00203837       0.00377643
H        5.04105418       3.79653310      -2.52740199      -0.00055475       0.00003362       0.00263729
H        4.81338977       1.52048305       1.08726557      -0.00658660       0.00262106       0.00390965
H        5.97177810       3.23449351      -0.30173746      -0.00625254       0.00420099       0.00603321
C        1.17505605       1.06656569      -3.39636664       0.00087379      -0.00202230      -0.00217552
H        0.87272540       2.11105208      -3.55354039      -0.00054984      -0.00231704      -0.00139052
H        1.97179999       0.83886664      -4.11495031       0.00124970      -0.00044127      -0.00225474
H        0.31371799       0.44488314      -3.63390196       0.00178478      -0.00305955      -0.00282737
