97
Properties=species:S:1:pos:R:3:forces:R:3 spin=1 charge=0 energy=-90906.07884043873 pbc="F F F"
C       -0.06665357       1.84166370      -1.72680924       0.00007740       0.00568784      -0.00459228
O       -0.89233511       1.65182760      -2.63033240      -0.00002393       0.00740268      -0.00454447
Ni       0.40761248       0.15402848      -0.71332341      -0.00341437       0.00351131       0.00007659
C       -0.48836384      -1.11896409       0.31074119      -0.00003253       0.00003868      -0.00063647
N        0.17638687      -2.14511025       0.88690400       0.00004214       0.00028626      -0.00009468
N       -1.79271629      -1.32110365       0.55787872      -0.00003215      -0.00083543      -0.00092406
C       -0.67590600      -3.05173880       1.65311242       0.00029428       0.00137095       0.00148757
C        1.60008685      -2.21226518       0.89048057      -0.00013571      -0.00044124       0.00063717
C       -2.07326211      -2.59637682       1.22097266       0.00024073       0.00001147       0.00064035
C       -2.84166398      -0.47785177       0.07973520       0.00021849      -0.00090604      -0.00099894
H       -0.47174080      -4.09265571       1.39749694       0.00080149       0.00096788       0.00362876
H       -0.50869322      -2.92529601       2.72788490       0.00017097       0.00359275       0.00126258
C        2.24372005      -2.93169974      -0.12174152      -0.00014436      -0.00118486       0.00117788
C        2.31576223      -1.53814876       1.88591569      -0.00046680      -0.00088711       0.00111577
H       -2.53483268      -3.29378137       0.51569276       0.00058052      -0.00125469       0.00165654
H       -2.75648833      -2.45696980       2.05961031       0.00008203       0.00096629       0.00038315
C       -3.40382123       0.44594568       0.96475084       0.00096402      -0.00037975      -0.00119031
C       -3.28724701      -0.60912481      -1.23948080       0.00038445      -0.00102250      -0.00098287
C        3.63440058      -2.92928372      -0.14644235      -0.00014804      -0.00181029       0.00182810
C        1.46614464      -3.69985630      -1.17150863      -0.00026359      -0.00041695       0.00060920
C        3.70526630      -1.56891483       1.82992958      -0.00044267      -0.00173628       0.00194745
C        1.61856638      -0.79792230       3.01013956      -0.00107854       0.00058347      -0.00018665
C       -4.41280351       1.27701978       0.49140841       0.00167471       0.00031026      -0.00143454
C       -2.94257574       0.56080956       2.40433237       0.00167192      -0.00096788      -0.00138529
C       -4.29660365       0.24306256      -1.67164939       0.00121224      -0.00027198      -0.00136176
C       -2.74554076      -1.68078798      -2.16532133       0.00038036      -0.00163075      -0.00029797
C        4.36094874      -2.24824573       0.81596493      -0.00031145      -0.00205190       0.00220070
H        4.15590372      -3.46408907      -0.93119126       0.00000361      -0.00198628       0.00206327
C        1.77987052      -5.19564682      -1.09624036       0.00057815      -0.00036977      -0.00251466
C        1.72418148      -3.14803758      -2.57341814      -0.00159493       0.00219613       0.00138937
H        0.40359167      -3.56604474      -0.96066692      -0.00021454      -0.00149992       0.00151921
H        4.28222910      -1.04893505       2.58556853      -0.00054250      -0.00203360       0.00223563
C        2.00544517       0.68018522       3.03832952      -0.00141184       0.00072752      -0.00295528
C        1.90513852      -1.47177865       4.35442675      -0.00210792       0.00334733       0.00141241
H        0.54334795      -0.84229365       2.82741397      -0.00096772       0.00015253      -0.00068241
C       -4.85096899       1.18218968      -0.81807319       0.00190330       0.00037641      -0.00156311
H       -4.85440073       2.01254028       1.15330093       0.00215763       0.00082769      -0.00167297
C       -4.08555681       0.26757497       3.37850621       0.00173928       0.00021772      -0.00101031
C       -2.32373639       1.93126972       2.67189231       0.00417463      -0.00206567      -0.00163804
H       -2.16123282      -0.18477799       2.56708254       0.00066118      -0.00208423      -0.00177658
H       -4.65069154       0.17514860      -2.69244705       0.00143759      -0.00000200      -0.00146728
C       -2.38729465      -1.13885514      -3.54864253      -0.00023508      -0.00253438      -0.00077772
C       -3.75528949      -2.82772934      -2.28395689       0.00096778      -0.00232936       0.00127612
H       -1.82761813      -2.07269339      -1.72158300       0.00071242      -0.00083708      -0.00032352
H        5.44320149      -2.25203780       0.77908573      -0.00031971      -0.00246559       0.00262718
H        1.58898511      -5.59085687      -0.09669251      -0.00048857      -0.00302669      -0.00379203
H        2.82731453      -5.39071913      -1.33518354       0.00091320       0.00066384      -0.00185146
H        1.16638508      -5.75063500      -1.80822138       0.00169125       0.00114331      -0.00467930
H        1.45228978      -2.09236841      -2.62431665      -0.00168909       0.00223912       0.00377559
H        1.13434636      -3.69281626      -3.31340743      -0.00232148       0.00360145       0.00090491
H        2.77720213      -3.24496091      -2.84809639      -0.00182480       0.00265294       0.00029207
H        1.75756213       1.15737349       2.08943237       0.00033682      -0.00166527      -0.00467360
H        3.07502857       0.80884581       3.22029113      -0.00177205       0.00124025      -0.00115023
H        1.46640515       1.19887554       3.83380631      -0.00312435       0.00250199      -0.00526298
H        1.62277975      -2.52636753       4.33908227      -0.00422502       0.00386245       0.00428247
H        1.35353556      -0.97917405       5.15717300      -0.00118773       0.00649108       0.00014436
H        2.96876474      -1.41907675       4.59699245      -0.00204568       0.00192490       0.00141480
H       -5.63196012       1.84175244      -1.17559219       0.00263954       0.00105827      -0.00190572
H       -4.52137335      -0.71746140       3.19942523       0.00100966       0.00049892      -0.00088682
H       -4.88457138       1.00483471       3.27799117       0.00221862       0.00075025      -0.00087160
H       -3.72778110       0.30367804       4.40946509       0.00204637      -0.00008122      -0.00112372
H       -1.50067476       2.12583967       1.98411833       0.00443066      -0.00372808      -0.00187247
H       -1.94523891       1.98958295       3.69536688       0.00459089      -0.00276115      -0.00174072
H       -3.06083656       2.72666153       2.54149366       0.00565369      -0.00067762      -0.00152610
H       -1.73359012      -0.27107579      -3.46877704      -0.00114024      -0.00169211      -0.00163042
H       -3.28187654      -0.84101354      -4.10079771      -0.00049437      -0.00403150      -0.00116395
H       -1.89119124      -1.91681562      -4.13399401       0.00070075      -0.00249841      -0.00002650
H       -4.02233519      -3.24006384      -1.30876473       0.00340189      -0.00287307       0.00170554
H       -3.35192015      -3.63357769      -2.90081753       0.00031514      -0.00187714       0.00025197
H       -4.67633249      -2.47352059      -2.75292200      -0.00034799      -0.00295606       0.00338599
N        1.29628151       1.34723205      -1.92987941      -0.00213534       0.00135792      -0.00215169
C       -1.10061978       4.90524457       1.11675815       0.00141640      -0.00039390       0.00317853
C       -1.93968679       4.54801999       0.07091819       0.00029826       0.00044605       0.00377971
H        0.76216870       4.49451013       2.10081944       0.00500146       0.00228759      -0.00251019
C        0.10528978       4.23803178       1.27873290       0.00338795       0.00215092      -0.00120246
C       -1.56567507       3.55129674      -0.81518587       0.00061644       0.00321253       0.00079094
C       -0.34452395       2.88871788      -0.67555414       0.00168800       0.00439499      -0.00258199
C        0.47895891       3.23315353       0.39843034       0.00356926       0.00455315      -0.00385227
H       -2.20525335       3.26441304      -1.63847677      -0.00023108       0.00429615       0.00109187
H        1.41720034       2.72620594       0.56206397       0.00544534       0.00710343      -0.00672842
H       -1.38688917       5.69080152       1.80465605       0.00082004      -0.00312507       0.00603541
H       -2.88923238       5.05185307      -0.06190442      -0.00101802      -0.00125973       0.00681855
C        2.46773076       2.07186521      -1.50196676      -0.00145583       0.00016887      -0.00240801
C        2.72693688       3.33121786      -2.02327101      -0.00419665       0.00361777       0.00463221
C        3.36141146       1.47588967      -0.62448201       0.00027618      -0.00379221      -0.00689995
C        3.87764844       4.00731307      -1.64688815      -0.00527924       0.00349728       0.00830448
H        2.01913266       3.77824214      -2.71115448      -0.00610905       0.00704880       0.00877331
C        4.50914392       2.15833730      -0.24615440      -0.00045178      -0.00431414      -0.00402746
H        3.13713490       0.48918705      -0.23088534       0.00138856      -0.00609387      -0.01203646
C        4.76817207       3.42408096      -0.75521077      -0.00346692      -0.00050560       0.00381862
H        4.07965406       4.99078719      -2.05099903      -0.00787507       0.00690447       0.01517463
H        5.20063823       1.69944166       0.44942950       0.00080891      -0.00741650      -0.00734011
H        5.66462750       3.95452034      -0.46130087      -0.00439266      -0.00052598       0.00675924
C        1.51715429       0.76529762      -3.26906028      -0.00177873      -0.00449057       0.00049764
H        1.59322076       1.55898653      -4.01650728       0.00222445      -0.00783326      -0.00267431
H        2.44603575       0.19754248      -3.24246905      -0.00374423      -0.00751312       0.00467275
H        0.68538191       0.11944256      -3.52842152      -0.00333583      -0.00310616       0.00192249
