 argument  1 = nwchem.in
  NWChem w/ OpenMP: maximum threads =    1
                                         
                                         


             Northwest Computational Chemistry Package (NWChem) 7.2.3
             --------------------------------------------------------


                    Environmental Molecular Sciences Laboratory
                       Pacific Northwest National Laboratory
                                Richland, WA 99352

                              Copyright (c) 1994-2022
                       Pacific Northwest National Laboratory
                            Battelle Memorial Institute

             NWChem is an open-source computational chemistry package
                        distributed under the terms of the
                      Educational Community License (ECL) 2.0
             A copy of the license is included with this distribution
                              in the LICENSE.TXT file

                                  ACKNOWLEDGMENT
                                  --------------

            This software and its documentation were developed at the
            EMSL at Pacific Northwest National Laboratory, a multiprogram
            national laboratory, operated for the U.S. Department of Energy
            by Battelle under Contract Number DE-AC05-76RL01830. Support
            for this work was provided by the Department of Energy Office
            of Biological and Environmental Research, Office of Basic
            Energy Sciences, and the Office of Advanced Scientific Computing.


           Job information
           ---------------

    hostname        = ae095e19bb9d
    program         = nwchem
    date            = Thu Jul  3 20:56:14 2025

    compiled        = Fri_May_02_22:05:35_2025
    source          = /opt/nwchem
    nwchem branch   = 7.2.3
    nwchem revision = N/A
    ga revision     = 5.9.1
    use scalapack   = T
    input           = nwchem.in
    prefix          = ni_singlepoint.
    data base       = ./ni_singlepoint.db
    status          = startup
    nproc           =        5
    time left       =     -1s



           Memory information
           ------------------

    heap     =    509724444 doubles =     3888.9 Mbytes
    stack    =    509724445 doubles =     3888.9 Mbytes
    global   =    291271111 doubles =     2222.2 Mbytes (distinct from heap & stack)
    total    =   1310720000 doubles =    10000.0 Mbytes
    verify   = yes
    hardfail = no 


           Directory information
           ---------------------

  0 permanent = .
  0 scratch   = .




                                NWChem Input Module
                                -------------------


                          Ni complex single-point energy
                          ------------------------------

 Scaling coordinates for geometry "geometry" by  1.889725989
 (inverse scale =  0.529177249)

 C1  symmetry detected

          ------
          auto-z
          ------
  no constraints, skipping    0.0000000000000000     
  no constraints, skipping    0.0000000000000000     


                             Geometry "geometry" -> ""
                             -------------------------

 Output coordinates in angstroms (scale by  1.889725989 to convert to a.u.)

  No.       Tag          Charge          X              Y              Z
 ---- ---------------- ---------- -------------- -------------- --------------
    1 C                    6.0000     1.49299148     0.61205966    -1.27608324
    2 O                    8.0000     1.36230104     1.33103012    -2.24514895
    3 Ni                  28.0000     0.09488094    -0.44991403    -0.72620676
    4 C                    6.0000    -1.22292631     0.41959965     0.30561612
    5 N                    7.0000    -2.15979284    -0.36074108     0.87582602
    6 N                    7.0000    -1.57704969     1.68670540     0.52997939
    7 C                    6.0000    -3.19885021     0.37720609     1.59388088
    8 C                    6.0000    -2.06101959    -1.78464545     0.87746962
    9 C                    6.0000    -2.87886066     1.82168644     1.19374645
   10 C                    6.0000    -0.85295686     2.83470963     0.08157039
   11 H                    1.0000    -4.19212530     0.05865904     1.27379584
   12 H                    1.0000    -3.11693069     0.21018570     2.67167543
   13 C                    6.0000    -2.62837501    -2.50079321    -0.18268786
   14 C                    6.0000    -1.39396098    -2.42037322     1.93162709
   15 H                    1.0000    -3.61175271     2.23052688     0.49350623
   16 H                    1.0000    -2.80874515     2.49680997     2.04690421
   17 C                    6.0000    -0.02995639     3.49356122     0.99892198
   18 C                    6.0000    -1.00932872     3.27364977    -1.23631066
   19 C                    6.0000    -2.48178817    -3.88434353    -0.18709163
   20 C                    6.0000    -3.40480705    -1.81387406    -1.28882691
   21 C                    6.0000    -1.28442602    -3.80548873     1.89321378
   22 C                    6.0000    -0.80721504    -1.64168632     3.09252024
   23 C                    6.0000     0.67786317     4.60493968     0.55632334
   24 C                    6.0000     0.09155346     3.04334897     2.44245554
   25 C                    6.0000    -0.28117064     4.38773892    -1.63509006
   26 C                    6.0000    -1.97733454     2.60700135    -2.19501911
   27 C                    6.0000    -1.81381292    -4.53118403     0.83818137
   28 H                    1.0000    -2.89625553    -4.46256974    -1.00369313
   29 C                    6.0000    -4.87787988    -2.22965956    -1.24814440
   30 C                    6.0000    -2.78983277    -2.08228932    -2.66230216
   31 H                    1.0000    -3.35516308    -0.73748754    -1.11330609
   32 H                    1.0000    -0.76578393    -4.32305184     2.69109091
   33 C                    6.0000     0.68617996    -1.91892916     3.26145737
   34 C                    6.0000    -1.57150820    -1.94421646     4.38380454
   35 H                    1.0000    -0.91276382    -0.57727509     2.87308309
   36 C                    6.0000     0.55887698     5.04398564    -0.75106785
   37 H                    1.0000     1.33356654     5.12876948     1.24140848
   38 C                    6.0000    -0.44919832     4.11164169     3.39687231
   39 C                    6.0000     1.53119121     2.67302115     2.79494713
   40 H                    1.0000    -0.51364229     2.14226709     2.56700739
   41 H                    1.0000    -0.36577109     4.74273856    -2.65408461
   42 C                    6.0000    -1.36807246     2.34910358    -3.57282031
   43 C                    6.0000    -3.24948462     3.45180840    -2.32660099
   44 H                    1.0000    -2.25003165     1.63652543    -1.77374968
   45 H                    1.0000    -1.70384971    -5.60792398     0.81503522
   46 H                    1.0000    -5.32212201    -2.02510017    -0.27195081
   47 H                    1.0000    -4.98882676    -3.29794455    -1.44467490
   48 H                    1.0000    -5.44851635    -1.68868244    -2.00498822
   49 H                    1.0000    -1.74538077    -1.76511960    -2.69285354
   50 H                    1.0000    -3.33652833    -1.53893674    -3.43528157
   51 H                    1.0000    -2.82760347    -3.14469750    -2.91210718
   52 H                    1.0000     1.22801024    -1.69762976     2.34254884
   53 H                    1.0000     0.87100555    -2.96341877     3.52082167
   54 H                    1.0000     1.09857596    -1.29861256     4.05944813
   55 H                    1.0000    -2.63844872    -1.73927945     4.27571140
   56 H                    1.0000    -1.18626091    -1.34137485     5.20797970
   57 H                    1.0000    -1.46435760    -2.99578940     4.65829587
   58 H                    1.0000     1.12308233     5.90631405    -1.08343340
   59 H                    1.0000    -1.48240313     4.37673102     3.16297648
   60 H                    1.0000     0.14620347     5.02475376     3.33472375
   61 H                    1.0000    -0.40949219     3.75792845     4.42910985
   62 H                    1.0000     1.91267429     1.90248625     2.12609943
   63 H                    1.0000     1.58843141     2.30188597     3.82086993
   64 H                    1.0000     2.19100487     3.53957011     2.71671772
   65 H                    1.0000    -0.42398988     1.81613893    -3.48099418
   66 H                    1.0000    -1.18517838     3.28466516    -4.10620929
   67 H                    1.0000    -2.06068240     1.76051177    -4.17861092
   68 H                    1.0000    -3.71964520     3.64214471    -1.35973748
   69 H                    1.0000    -3.97556585     2.95301311    -2.97186735
   70 H                    1.0000    -3.01338916     4.42084115    -2.77228831
   71 N                    7.0000     1.30026081    -1.29782019    -1.84895165
   72 C                    6.0000     4.71662325     1.42134431     1.42864708
   73 C                    6.0000     4.38522805     2.30682799     0.41185687
   74 H                    1.0000     4.28893500    -0.47613147     2.33627925
   75 C                    6.0000     4.03149131     0.21887863     1.54632977
   76 C                    6.0000     3.36742298     1.99474087    -0.47478359
   77 C                    6.0000     2.66387216     0.80003364    -0.34896974
   78 C                    6.0000     3.00532875    -0.08851105     0.66456040
   79 H                    1.0000     3.08424356     2.67025531    -1.27106110
   80 H                    1.0000     2.47375379    -1.02403169     0.76359180
   81 H                    1.0000     5.50296104     1.67055444     2.13013940
   82 H                    1.0000     4.91453207     3.24637167     0.31328998
   83 C                    6.0000     2.11737233    -2.34547164    -1.40917230
   84 C                    6.0000     3.37673798    -2.58732369    -1.96754265
   85 C                    6.0000     1.66894004    -3.19705596    -0.39722912
   86 C                    6.0000     4.14170631    -3.66173212    -1.54233972
   87 H                    1.0000     3.75651220    -1.91968239    -2.73104303
   88 C                    6.0000     2.44081265    -4.26325134     0.03403629
   89 H                    1.0000     0.68510629    -3.02035989     0.02690228
   90 C                    6.0000     3.67957460    -4.50932579    -0.54320876
   91 H                    1.0000     5.11013935    -3.83875002    -1.99436913
   92 H                    1.0000     2.05859374    -4.91931023     0.80704479
   93 H                    1.0000     4.27469575    -5.35470643    -0.22444290
   94 C                    6.0000     1.08710570    -1.25191587    -3.28617311
   95 H                    1.0000     2.00255272    -1.06899940    -3.85779668
   96 H                    1.0000     0.65570938    -2.20084273    -3.62317338
   97 H                    1.0000     0.39327183    -0.44949734    -3.52678233

      Atomic Mass 
      ----------- 

      C                 12.000000
      O                 15.994910
      Ni                57.935300
      N                 14.003070
      H                  1.007825


 Effective nuclear repulsion energy (a.u.)    7264.7677103762

            Nuclear Dipole moment (a.u.) 
            ----------------------------
        X                 Y               Z
 ---------------- ---------------- ----------------
     0.0000000000    -0.0000000000     0.0000000000



                                Z-matrix (autoz)
                                -------- 

 Units are Angstrom for bonds and degrees for angles

      Type          Name      I     J     K     L     M      Value
      ----------- --------  ----- ----- ----- ----- ----- ----------
    1 Stretch                  1     2                       1.21371
    2 Stretch                  1     3                       1.83980
    3 Stretch                  1    77                       1.50527
    4 Stretch                  3     4                       1.88609
    5 Stretch                  3    71                       1.85268
    6 Stretch                  4     5                       1.34603
    7 Stretch                  4     6                       1.33465
    8 Stretch                  5     7                       1.46281
    9 Stretch                  5     8                       1.42733
   10 Stretch                  6     9                       1.46749
   11 Stretch                  6    10                       1.42944
   12 Stretch                  7     9                       1.53265
   13 Stretch                  7    11                       1.09111
   14 Stretch                  7    12                       1.09373
   15 Stretch                  8    13                       1.39953
   16 Stretch                  8    14                       1.40013
   17 Stretch                  9    15                       1.09299
   18 Stretch                  9    16                       1.09022
   19 Stretch                 10    17                       1.39748
   20 Stretch                 10    18                       1.39783
   21 Stretch                 13    19                       1.39130
   22 Stretch                 13    20                       1.51600
   23 Stretch                 14    21                       1.38997
   24 Stretch                 14    22                       1.51601
   25 Stretch                 17    23                       1.38999
   26 Stretch                 17    24                       1.51699
   27 Stretch                 18    25                       1.38940
   28 Stretch                 18    26                       1.51677
   29 Stretch                 19    27                       1.38412
   30 Stretch                 19    28                       1.08304
   31 Stretch                 20    29                       1.53117
   32 Stretch                 20    30                       1.52862
   33 Stretch                 20    31                       1.09173
   34 Stretch                 21    27                       1.38563
   35 Stretch                 21    32                       1.08327
   36 Stretch                 22    33                       1.52828
   37 Stretch                 22    34                       1.53071
   38 Stretch                 22    35                       1.09191
   39 Stretch                 23    36                       1.38427
   40 Stretch                 23    37                       1.08337
   41 Stretch                 24    38                       1.53120
   42 Stretch                 24    39                       1.52773
   43 Stretch                 24    40                       1.09258
   44 Stretch                 25    36                       1.38486
   45 Stretch                 25    41                       1.08237
   46 Stretch                 26    42                       1.52841
   47 Stretch                 26    43                       1.53277
   48 Stretch                 26    44                       1.09255
   49 Stretch                 27    45                       1.08259
   50 Stretch                 29    46                       1.09186
   51 Stretch                 29    47                       1.09186
   52 Stretch                 29    48                       1.09137
   53 Stretch                 30    49                       1.09198
   54 Stretch                 30    50                       1.09161
   55 Stretch                 30    51                       1.09203
   56 Stretch                 33    52                       1.08947
   57 Stretch                 33    53                       1.09197
   58 Stretch                 33    54                       1.09163
   59 Stretch                 34    55                       1.09181
   60 Stretch                 34    56                       1.09137
   61 Stretch                 34    57                       1.09208
   62 Stretch                 36    58                       1.08278
   63 Stretch                 38    59                       1.09201
   64 Stretch                 38    60                       1.09185
   65 Stretch                 38    61                       1.09188
   66 Stretch                 39    62                       1.08932
   67 Stretch                 39    63                       1.09249
   68 Stretch                 39    64                       1.09196
   69 Stretch                 42    65                       1.08801
   70 Stretch                 42    66                       1.09235
   71 Stretch                 42    67                       1.09231
   72 Stretch                 43    68                       1.09184
   73 Stretch                 43    69                       1.09195
   74 Stretch                 43    70                       1.09243
   75 Stretch                 71    83                       1.39952
   76 Stretch                 71    94                       1.45367
   77 Stretch                 72    73                       1.38844
   78 Stretch                 72    75                       1.38895
   79 Stretch                 72    81                       1.08283
   80 Stretch                 73    76                       1.38544
   81 Stretch                 73    82                       1.08288
   82 Stretch                 74    75                       1.08321
   83 Stretch                 75    78                       1.38745
   84 Stretch                 76    77                       1.39217
   85 Stretch                 76    79                       1.08193
   86 Stretch                 77    78                       1.39045
   87 Stretch                 78    80                       1.08055
   88 Stretch                 83    84                       1.39867
   89 Stretch                 83    85                       1.39654
   90 Stretch                 84    86                       1.38576
   91 Stretch                 84    87                       1.08301
   92 Stretch                 85    88                       1.38512
   93 Stretch                 85    89                       1.08584
   94 Stretch                 86    90                       1.38933
   95 Stretch                 86    91                       1.08330
   96 Stretch                 88    90                       1.38863
   97 Stretch                 88    92                       1.08353
   98 Stretch                 90    93                       1.08187
   99 Stretch                 94    95                       1.09465
  100 Stretch                 94    96                       1.09551
  101 Stretch                 94    97                       1.08774
  102 Bend                     1     3     4               115.36343
  103 Bend                     1     3    71                65.70930
  104 Bend                     1    77    76               116.39788
  105 Bend                     1    77    78               124.06767
  106 Bend                     2     1     3               119.91661
  107 Bend                     2     1    77               120.10256
  108 Bend                     3     1    77               118.62732
  109 Bend                     3     4     5               116.79478
  110 Bend                     3     4     6               135.64596
  111 Bend                     3    71    83               122.14265
  112 Bend                     3    71    94               119.29461
  113 Bend                     4     5     7               114.19743
  114 Bend                     4     5     8               122.05059
  115 Bend                     4     6     9               113.49928
  116 Bend                     4     6    10               125.12277
  117 Bend                     5     4     6               107.12790
  118 Bend                     5     7     9               101.47824
  119 Bend                     5     7    11               110.81456
  120 Bend                     5     7    12               110.70050
  121 Bend                     5     8    13               118.78680
  122 Bend                     5     8    14               119.13025
  123 Bend                     6     9     7               102.50991
  124 Bend                     6     9    15               109.84405
  125 Bend                     6     9    16               110.72410
  126 Bend                     6    10    17               118.10149
  127 Bend                     6    10    18               119.42455
  128 Bend                     7     5     8               123.49422
  129 Bend                     7     9    15               112.32151
  130 Bend                     7     9    16               113.12580
  131 Bend                     8    13    19               117.93957
  132 Bend                     8    13    20               121.90245
  133 Bend                     8    14    21               117.98238
  134 Bend                     8    14    22               121.85084
  135 Bend                     9     6    10               121.15709
  136 Bend                     9     7    11               112.86899
  137 Bend                     9     7    12               112.67810
  138 Bend                    10    17    23               117.89356
  139 Bend                    10    17    24               122.13401
  140 Bend                    10    18    25               117.63029
  141 Bend                    10    18    26               121.95823
  142 Bend                    11     7    12               108.22102
  143 Bend                    13     8    14               122.08158
  144 Bend                    13    19    27               120.87919
  145 Bend                    13    19    28               119.53704
  146 Bend                    13    20    29               110.50557
  147 Bend                    13    20    30               111.71450
  148 Bend                    13    20    31               107.82726
  149 Bend                    14    21    27               120.85280
  150 Bend                    14    21    32               119.56988
  151 Bend                    14    22    33               111.69504
  152 Bend                    14    22    34               110.56159
  153 Bend                    14    22    35               108.02325
  154 Bend                    15     9    16               108.23073
  155 Bend                    17    10    18               122.46090
  156 Bend                    17    23    36               120.70117
  157 Bend                    17    23    37               119.56780
  158 Bend                    17    24    38               110.96427
  159 Bend                    17    24    39               111.52946
  160 Bend                    17    24    40               107.99142
  161 Bend                    18    25    36               120.97491
  162 Bend                    18    25    41               119.48781
  163 Bend                    18    26    42               112.92638
  164 Bend                    18    26    43               109.98066
  165 Bend                    18    26    44               107.81764
  166 Bend                    19    13    20               120.14836
  167 Bend                    19    27    21               120.24060
  168 Bend                    19    27    45               119.86705
  169 Bend                    20    29    46               111.36524
  170 Bend                    20    29    47               111.01783
  171 Bend                    20    29    48               110.48702
  172 Bend                    20    30    49               111.03482
  173 Bend                    20    30    50               110.32585
  174 Bend                    20    30    51               111.25074
  175 Bend                    21    14    22               120.16619
  176 Bend                    21    27    45               119.89233
  177 Bend                    22    33    52               110.84850
  178 Bend                    22    33    53               111.41826
  179 Bend                    22    33    54               110.29654
  180 Bend                    22    34    55               111.55024
  181 Bend                    22    34    56               110.58698
  182 Bend                    22    34    57               110.69251
  183 Bend                    23    17    24               119.96737
  184 Bend                    23    36    25               120.31414
  185 Bend                    23    36    58               119.84898
  186 Bend                    24    38    59               111.71536
  187 Bend                    24    38    60               110.81862
  188 Bend                    24    38    61               110.51233
  189 Bend                    24    39    62               111.08841
  190 Bend                    24    39    63               110.38900
  191 Bend                    24    39    64               111.13153
  192 Bend                    25    18    26               120.36347
  193 Bend                    25    36    58               119.83665
  194 Bend                    26    42    65               110.63813
  195 Bend                    26    42    66               111.24786
  196 Bend                    26    42    67               109.76183
  197 Bend                    26    43    68               112.17643
  198 Bend                    26    43    69               110.53869
  199 Bend                    26    43    70               110.15478
  200 Bend                    27    19    28               119.58377
  201 Bend                    27    21    32               119.57117
  202 Bend                    29    20    30               111.29894
  203 Bend                    29    20    31               107.89096
  204 Bend                    30    20    31               107.41476
  205 Bend                    33    22    34               111.02680
  206 Bend                    33    22    35               107.06842
  207 Bend                    34    22    35               108.29622
  208 Bend                    36    23    37               119.73012
  209 Bend                    36    25    41               119.53532
  210 Bend                    38    24    39               110.98340
  211 Bend                    38    24    40               107.98247
  212 Bend                    39    24    40               107.20287
  213 Bend                    42    26    43               110.27094
  214 Bend                    42    26    44               107.28962
  215 Bend                    43    26    44               108.39253
  216 Bend                    46    29    47               107.63124
  217 Bend                    46    29    48               108.32548
  218 Bend                    47    29    48               107.88025
  219 Bend                    49    30    50               108.33875
  220 Bend                    49    30    51               108.01447
  221 Bend                    50    30    51               107.75498
  222 Bend                    52    33    53               108.08643
  223 Bend                    52    33    54               108.25565
  224 Bend                    53    33    54               107.81653
  225 Bend                    55    34    56               108.42334
  226 Bend                    55    34    57               107.54822
  227 Bend                    56    34    57               107.90485
  228 Bend                    59    38    60               107.50218
  229 Bend                    59    38    61               108.39305
  230 Bend                    60    38    61               107.75203
  231 Bend                    62    39    63               108.53875
  232 Bend                    62    39    64               107.80267
  233 Bend                    63    39    64               107.77047
  234 Bend                    65    42    66               108.38915
  235 Bend                    65    42    67               109.45393
  236 Bend                    66    42    67               107.26954
  237 Bend                    68    43    69               108.45683
  238 Bend                    68    43    70               107.44016
  239 Bend                    69    43    70               107.92759
  240 Bend                    71    83    84               121.98491
  241 Bend                    71    83    85               119.78145
  242 Bend                    71    94    95               113.51189
  243 Bend                    71    94    96               109.54392
  244 Bend                    71    94    97               109.60456
  245 Bend                    72    73    76               120.02310
  246 Bend                    72    73    82               120.22067
  247 Bend                    72    75    74               120.00207
  248 Bend                    72    75    78               120.18437
  249 Bend                    73    72    75               119.76482
  250 Bend                    73    72    81               120.06445
  251 Bend                    73    76    77               120.44663
  252 Bend                    73    76    79               121.50960
  253 Bend                    74    75    78               119.80853
  254 Bend                    75    72    81               120.16992
  255 Bend                    75    78    77               120.21876
  256 Bend                    75    78    80               119.82928
  257 Bend                    76    73    82               119.75432
  258 Bend                    76    77    78               119.35150
  259 Bend                    77    76    79               118.03716
  260 Bend                    77    78    80               119.95122
  261 Bend                    83    71    94               114.83029
  262 Bend                    83    84    86               120.57149
  263 Bend                    83    84    87               119.37893
  264 Bend                    83    85    88               121.06795
  265 Bend                    83    85    89               118.34277
  266 Bend                    84    83    85               118.22638
  267 Bend                    84    86    90               120.66683
  268 Bend                    84    86    91               119.48187
  269 Bend                    85    88    90               120.27127
  270 Bend                    85    88    92               119.44713
  271 Bend                    86    84    87               120.04642
  272 Bend                    86    90    88               119.18064
  273 Bend                    86    90    93               120.37323
  274 Bend                    88    85    89               120.56773
  275 Bend                    88    90    93               120.44459
  276 Bend                    90    86    91               119.85121
  277 Bend                    90    88    92               120.26151
  278 Bend                    95    94    96               108.26576
  279 Bend                    95    94    97               107.13744
  280 Bend                    96    94    97               108.64842
  281 Torsion                  1     3     4     5        -171.19127
  282 Torsion                  1     3     4     6          17.51251
  283 Torsion                  1     3    71    83         112.97078
  284 Torsion                  1     3    71    94         -89.92697
  285 Torsion                  1    77    76    73         174.33918
  286 Torsion                  1    77    76    79          -4.73882
  287 Torsion                  1    77    78    75        -174.46175
  288 Torsion                  1    77    78    80           5.85128
  289 Torsion                  2     1     3     4         -80.80384
  290 Torsion                  2     1     3    71          94.53544
  291 Torsion                  2     1    77    76          14.83700
  292 Torsion                  2     1    77    78        -170.12480
  293 Torsion                  3     1    77    76        -151.87377
  294 Torsion                  3     1    77    78          23.16444
  295 Torsion                  3     4     5     7        -176.44869
  296 Torsion                  3     4     5     8           9.19398
  297 Torsion                  3     4     6     9         166.95235
  298 Torsion                  3     4     6    10          -7.67540
  299 Torsion                  3    71    83    84        -150.49868
  300 Torsion                  3    71    83    85          30.49914
  301 Torsion                  3    71    94    95         137.42315
  302 Torsion                  3    71    94    96        -101.43643
  303 Torsion                  3    71    94    97          17.68251
  304 Torsion                  4     3     1    77          85.93226
  305 Torsion                  4     5     7     9           8.59252
  306 Torsion                  4     5     7    11         128.68767
  307 Torsion                  4     5     7    12        -111.22930
  308 Torsion                  4     5     8    13         -90.18289
  309 Torsion                  4     5     8    14          89.39978
  310 Torsion                  4     6     9     7           9.93839
  311 Torsion                  4     6     9    15        -109.64386
  312 Torsion                  4     6     9    16         130.87443
  313 Torsion                  4     6    10    17        -100.43585
  314 Torsion                  4     6    10    18          80.84629
  315 Torsion                  5     4    71    83         -56.45375
  316 Torsion                  5     4    71    94          99.44773
  317 Torsion                  4     5     3    71        -170.17917
  318 Torsion                  5     4     6     9          -4.92188
  319 Torsion                  5     4     6    10        -179.54962
  320 Torsion                  5     7     9     6         -10.18429
  321 Torsion                  5     7     9    15         107.65400
  322 Torsion                  5     7     9    16        -129.45273
  323 Torsion                  5     8    13    19         177.82320
  324 Torsion                  5     8    13    20          -3.30368
  325 Torsion                  5     8    14    21        -178.51125
  326 Torsion                  5     8    14    22           1.76973
  327 Torsion                  6     4    71    83         135.52818
  328 Torsion                  6     4    71    94         -68.57034
  329 Torsion                  4     6     3    71         166.52138
  330 Torsion                  6     4     5     7          -2.80437
  331 Torsion                  6     4     5     8        -177.16170
  332 Torsion                  6     9     7    11        -128.81579
  333 Torsion                  6     9     7    12         108.22521
  334 Torsion                  6    10    17    23         179.65111
  335 Torsion                  6    10    17    24          -1.16780
  336 Torsion                  6    10    18    25        -179.58788
  337 Torsion                  6    10    18    26           2.92491
  338 Torsion                  7     5     8    13          95.99085
  339 Torsion                  7     5     8    14         -84.42648
  340 Torsion                  7     9     6    10        -175.19572
  341 Torsion                  8     5     7     9        -177.14274
  342 Torsion                  8     5     7    11         -57.04758
  343 Torsion                  8     5     7    12          63.03544
  344 Torsion                  8    13    19    27           1.03483
  345 Torsion                  8    13    19    28        -178.98198
  346 Torsion                  8    13    20    29        -114.02284
  347 Torsion                  8    13    20    30         121.47984
  348 Torsion                  8    13    20    31           3.67474
  349 Torsion                  8    14    21    27           0.36556
  350 Torsion                  8    14    21    32         179.45913
  351 Torsion                  8    14    22    33        -123.53924
  352 Torsion                  8    14    22    34         112.28945
  353 Torsion                  8    14    22    35          -6.04644
  354 Torsion                  9     6    10    17          85.32257
  355 Torsion                  9     6    10    18         -93.39529
  356 Torsion                 10     6     9    15          65.22204
  357 Torsion                 10     6     9    16         -54.25968
  358 Torsion                 10    17    23    36           0.41746
  359 Torsion                 10    17    23    37        -179.23369
  360 Torsion                 10    17    24    38        -115.45005
  361 Torsion                 10    17    24    39         120.25875
  362 Torsion                 10    17    24    40           2.71659
  363 Torsion                 10    18    25    36          -0.58566
  364 Torsion                 10    18    25    41         178.90426
  365 Torsion                 10    18    26    42        -134.33909
  366 Torsion                 10    18    26    43         102.01551
  367 Torsion                 10    18    26    44         -15.98681
  368 Torsion                 11     7     9    15         -10.97749
  369 Torsion                 11     7     9    16         111.91577
  370 Torsion                 12     7     9    15        -133.93650
  371 Torsion                 12     7     9    16         -11.04323
  372 Torsion                 13     8    14    21           1.05708
  373 Torsion                 13     8    14    22        -178.66194
  374 Torsion                 13    19    27    21           0.32863
  375 Torsion                 13    19    27    45        -179.61219
  376 Torsion                 13    20    29    46          56.08472
  377 Torsion                 13    20    29    47         -63.83116
  378 Torsion                 13    20    29    48         176.52057
  379 Torsion                 13    20    30    49         -57.12807
  380 Torsion                 13    20    30    50        -177.25603
  381 Torsion                 13    20    30    51          63.20750
  382 Torsion                 14     8    13    19          -1.74656
  383 Torsion                 14     8    13    20         177.12657
  384 Torsion                 14    21    27    19          -1.05268
  385 Torsion                 14    21    27    45         178.88813
  386 Torsion                 14    22    33    52          56.39271
  387 Torsion                 14    22    33    53         -64.02055
  388 Torsion                 14    22    33    54         176.27661
  389 Torsion                 14    22    34    55         -56.02749
  390 Torsion                 14    22    34    56        -176.77842
  391 Torsion                 14    22    34    57          63.68801
  392 Torsion                 17    10    18    25           1.75256
  393 Torsion                 17    10    18    26        -175.73466
  394 Torsion                 17    23    36    25           0.69182
  395 Torsion                 17    23    36    58        -179.48420
  396 Torsion                 17    24    38    59          56.08701
  397 Torsion                 17    24    38    60         -63.76484
  398 Torsion                 17    24    38    61         176.85942
  399 Torsion                 17    24    39    62         -56.55569
  400 Torsion                 17    24    39    63        -177.01174
  401 Torsion                 17    24    39    64          63.46799
  402 Torsion                 18    10    17    23          -1.67244
  403 Torsion                 18    10    17    24         177.50865
  404 Torsion                 18    25    36    23          -0.60489
  405 Torsion                 18    25    36    58         179.57111
  406 Torsion                 18    26    42    65          52.12757
  407 Torsion                 18    26    42    66         -68.41240
  408 Torsion                 18    26    42    67         173.02299
  409 Torsion                 18    26    43    68         -55.69387
  410 Torsion                 18    26    43    69        -176.87871
  411 Torsion                 18    26    43    70          63.93434
  412 Torsion                 19    13    20    29          64.82589
  413 Torsion                 19    13    20    30         -59.67143
  414 Torsion                 19    13    20    31        -177.47653
  415 Torsion                 19    27    21    32         179.85376
  416 Torsion                 20    13    19    27        -177.85886
  417 Torsion                 20    13    19    28           2.12433
  418 Torsion                 21    14    22    33          56.74776
  419 Torsion                 21    14    22    34         -67.42355
  420 Torsion                 21    14    22    35         174.24056
  421 Torsion                 21    27    19    28        -179.65454
  422 Torsion                 22    14    21    27        -179.91050
  423 Torsion                 22    14    21    32          -0.81693
  424 Torsion                 23    17    24    38          63.71449
  425 Torsion                 23    17    24    39         -60.57671
  426 Torsion                 23    17    24    40        -178.11887
  427 Torsion                 23    36    25    41         179.90542
  428 Torsion                 24    17    23    36        -178.78207
  429 Torsion                 24    17    23    37           1.56678
  430 Torsion                 25    18    26    42          48.24108
  431 Torsion                 25    18    26    43         -75.40431
  432 Torsion                 25    18    26    44         166.59336
  433 Torsion                 25    36    23    37        -179.65759
  434 Torsion                 26    18    25    36         176.94352
  435 Torsion                 26    18    25    41          -3.56656
  436 Torsion                 28    19    27    45           0.40464
  437 Torsion                 29    20    30    49         178.81920
  438 Torsion                 29    20    30    50          58.69124
  439 Torsion                 29    20    30    51         -60.84523
  440 Torsion                 30    20    29    46        -179.18073
  441 Torsion                 30    20    29    47          60.90339
  442 Torsion                 30    20    29    48         -58.74488
  443 Torsion                 31    20    29    46         -61.57374
  444 Torsion                 31    20    29    47         178.51039
  445 Torsion                 31    20    29    48          58.86211
  446 Torsion                 31    20    30    49          60.92417
  447 Torsion                 31    20    30    50         -59.20378
  448 Torsion                 31    20    30    51        -178.74025
  449 Torsion                 32    21    27    45          -0.20544
  450 Torsion                 33    22    34    55         179.41896
  451 Torsion                 33    22    34    56          58.66803
  452 Torsion                 33    22    34    57         -60.86554
  453 Torsion                 34    22    33    52        -179.69750
  454 Torsion                 34    22    33    53          59.88925
  455 Torsion                 34    22    33    54         -59.81360
  456 Torsion                 35    22    33    52         -61.67320
  457 Torsion                 35    22    33    53         177.91355
  458 Torsion                 35    22    33    54          58.21070
  459 Torsion                 35    22    34    55          62.14179
  460 Torsion                 35    22    34    56         -58.60915
  461 Torsion                 35    22    34    57        -178.14271
  462 Torsion                 37    23    36    58           0.16639
  463 Torsion                 38    24    39    62         179.16386
  464 Torsion                 38    24    39    63          58.70781
  465 Torsion                 38    24    39    64         -60.81246
  466 Torsion                 39    24    38    59        -179.31208
  467 Torsion                 39    24    38    60          60.83607
  468 Torsion                 39    24    38    61         -58.53967
  469 Torsion                 40    24    38    59         -62.08504
  470 Torsion                 40    24    38    60         178.06311
  471 Torsion                 40    24    38    61          58.68737
  472 Torsion                 40    24    39    62          61.46125
  473 Torsion                 40    24    39    63         -58.99481
  474 Torsion                 40    24    39    64        -178.51508
  475 Torsion                 41    25    36    58           0.08142
  476 Torsion                 42    26    43    68         179.12592
  477 Torsion                 42    26    43    69          57.94107
  478 Torsion                 42    26    43    70         -61.24588
  479 Torsion                 43    26    42    65         175.61265
  480 Torsion                 43    26    42    66          55.07268
  481 Torsion                 43    26    42    67         -63.49193
  482 Torsion                 44    26    42    65         -66.53225
  483 Torsion                 44    26    42    66         172.92778
  484 Torsion                 44    26    42    67          54.36317
  485 Torsion                 44    26    43    68          61.95232
  486 Torsion                 44    26    43    69         -59.23252
  487 Torsion                 44    26    43    70        -178.41947
  488 Torsion                 71     3     1    77         -98.72845
  489 Torsion                 71    83    84    86        -177.70209
  490 Torsion                 71    83    84    87           2.94392
  491 Torsion                 71    83    85    88         178.29354
  492 Torsion                 71    83    85    89          -0.02706
  493 Torsion                 72    73    76    77           0.47761
  494 Torsion                 72    73    76    79         179.52307
  495 Torsion                 72    75    78    77           0.53458
  496 Torsion                 72    75    78    80        -179.77806
  497 Torsion                 73    72    75    74         179.81092
  498 Torsion                 73    72    75    78          -1.00631
  499 Torsion                 73    76    77    78          -0.94582
  500 Torsion                 74    75    72    81          -0.51680
  501 Torsion                 74    75    78    77         179.71893
  502 Torsion                 74    75    78    80          -0.59371
  503 Torsion                 75    72    73    76           0.50108
  504 Torsion                 75    72    73    82         179.99687
  505 Torsion                 75    78    77    76           0.43892
  506 Torsion                 76    73    72    81        -179.17155
  507 Torsion                 76    77    78    80        -179.24806
  508 Torsion                 77    76    73    82        -179.02054
  509 Torsion                 78    75    72    81         178.66596
  510 Torsion                 78    77    76    79         179.97618
  511 Torsion                 79    76    73    82           0.02491
  512 Torsion                 81    72    73    82           0.32425
  513 Torsion                  4     3    83    71         172.54732
  514 Torsion                 83    71    94    95         -63.86195
  515 Torsion                 83    71    94    96          57.27847
  516 Torsion                 83    71    94    97         176.39741
  517 Torsion                 83    84    86    90          -0.75770
  518 Torsion                 83    84    86    91         179.35082
  519 Torsion                 83    85    88    90          -0.39294
  520 Torsion                 83    85    88    92        -178.76721
  521 Torsion                 84    83    71    94          51.45728
  522 Torsion                 84    83    85    88          -0.74590
  523 Torsion                 84    83    85    89        -179.06650
  524 Torsion                 84    86    90    88          -0.39914
  525 Torsion                 84    86    90    93         179.15027
  526 Torsion                 85    83    71    94        -127.54489
  527 Torsion                 85    83    84    86           1.31499
  528 Torsion                 85    83    84    87        -178.03900
  529 Torsion                 85    88    90    86           0.96942
  530 Torsion                 85    88    90    93        -178.57966
  531 Torsion                 86    90    88    92         179.33036
  532 Torsion                 87    84    86    90         178.59198
  533 Torsion                 87    84    86    91          -1.29950
  534 Torsion                 88    90    86    91         179.49194
  535 Torsion                 89    85    88    90         177.89040
  536 Torsion                 89    85    88    92          -0.48386
  537 Torsion                 91    86    90    93          -0.95865
  538 Torsion                 92    88    90    93          -0.21871
  539 Torsion                  4     3    94    71        -177.73929


            XYZ format geometry
            -------------------
    97
 geometry
 C                     1.49299148     0.61205966    -1.27608324
 O                     1.36230104     1.33103012    -2.24514895
 Ni                    0.09488094    -0.44991403    -0.72620676
 C                    -1.22292631     0.41959965     0.30561612
 N                    -2.15979284    -0.36074108     0.87582602
 N                    -1.57704969     1.68670540     0.52997939
 C                    -3.19885021     0.37720609     1.59388088
 C                    -2.06101959    -1.78464545     0.87746962
 C                    -2.87886066     1.82168644     1.19374645
 C                    -0.85295686     2.83470963     0.08157039
 H                    -4.19212530     0.05865904     1.27379584
 H                    -3.11693069     0.21018570     2.67167543
 C                    -2.62837501    -2.50079321    -0.18268786
 C                    -1.39396098    -2.42037322     1.93162709
 H                    -3.61175271     2.23052688     0.49350623
 H                    -2.80874515     2.49680997     2.04690421
 C                    -0.02995639     3.49356122     0.99892198
 C                    -1.00932872     3.27364977    -1.23631066
 C                    -2.48178817    -3.88434353    -0.18709163
 C                    -3.40480705    -1.81387406    -1.28882691
 C                    -1.28442602    -3.80548873     1.89321378
 C                    -0.80721504    -1.64168632     3.09252024
 C                     0.67786317     4.60493968     0.55632334
 C                     0.09155346     3.04334897     2.44245554
 C                    -0.28117064     4.38773892    -1.63509006
 C                    -1.97733454     2.60700135    -2.19501911
 C                    -1.81381292    -4.53118403     0.83818137
 H                    -2.89625553    -4.46256974    -1.00369313
 C                    -4.87787988    -2.22965956    -1.24814440
 C                    -2.78983277    -2.08228932    -2.66230216
 H                    -3.35516308    -0.73748754    -1.11330609
 H                    -0.76578393    -4.32305184     2.69109091
 C                     0.68617996    -1.91892916     3.26145737
 C                    -1.57150820    -1.94421646     4.38380454
 H                    -0.91276382    -0.57727509     2.87308309
 C                     0.55887698     5.04398564    -0.75106785
 H                     1.33356654     5.12876948     1.24140848
 C                    -0.44919832     4.11164169     3.39687231
 C                     1.53119121     2.67302115     2.79494713
 H                    -0.51364229     2.14226709     2.56700739
 H                    -0.36577109     4.74273856    -2.65408461
 C                    -1.36807246     2.34910358    -3.57282031
 C                    -3.24948462     3.45180840    -2.32660099
 H                    -2.25003165     1.63652543    -1.77374968
 H                    -1.70384971    -5.60792398     0.81503522
 H                    -5.32212201    -2.02510017    -0.27195081
 H                    -4.98882676    -3.29794455    -1.44467490
 H                    -5.44851635    -1.68868244    -2.00498822
 H                    -1.74538077    -1.76511960    -2.69285354
 H                    -3.33652833    -1.53893674    -3.43528157
 H                    -2.82760347    -3.14469750    -2.91210718
 H                     1.22801024    -1.69762976     2.34254884
 H                     0.87100555    -2.96341877     3.52082167
 H                     1.09857596    -1.29861256     4.05944813
 H                    -2.63844872    -1.73927945     4.27571140
 H                    -1.18626091    -1.34137485     5.20797970
 H                    -1.46435760    -2.99578940     4.65829587
 H                     1.12308233     5.90631405    -1.08343340
 H                    -1.48240313     4.37673102     3.16297648
 H                     0.14620347     5.02475376     3.33472375
 H                    -0.40949219     3.75792845     4.42910985
 H                     1.91267429     1.90248625     2.12609943
 H                     1.58843141     2.30188597     3.82086993
 H                     2.19100487     3.53957011     2.71671772
 H                    -0.42398988     1.81613893    -3.48099418
 H                    -1.18517838     3.28466516    -4.10620929
 H                    -2.06068240     1.76051177    -4.17861092
 H                    -3.71964520     3.64214471    -1.35973748
 H                    -3.97556585     2.95301311    -2.97186735
 H                    -3.01338916     4.42084115    -2.77228831
 N                     1.30026081    -1.29782019    -1.84895165
 C                     4.71662325     1.42134431     1.42864708
 C                     4.38522805     2.30682799     0.41185687
 H                     4.28893500    -0.47613147     2.33627925
 C                     4.03149131     0.21887863     1.54632977
 C                     3.36742298     1.99474087    -0.47478359
 C                     2.66387216     0.80003364    -0.34896974
 C                     3.00532875    -0.08851105     0.66456040
 H                     3.08424356     2.67025531    -1.27106110
 H                     2.47375379    -1.02403169     0.76359180
 H                     5.50296104     1.67055444     2.13013940
 H                     4.91453207     3.24637167     0.31328998
 C                     2.11737233    -2.34547164    -1.40917230
 C                     3.37673798    -2.58732369    -1.96754265
 C                     1.66894004    -3.19705596    -0.39722912
 C                     4.14170631    -3.66173212    -1.54233972
 H                     3.75651220    -1.91968239    -2.73104303
 C                     2.44081265    -4.26325134     0.03403629
 H                     0.68510629    -3.02035989     0.02690228
 C                     3.67957460    -4.50932579    -0.54320876
 H                     5.11013935    -3.83875002    -1.99436913
 H                     2.05859374    -4.91931023     0.80704479
 H                     4.27469575    -5.35470643    -0.22444290
 C                     1.08710570    -1.25191587    -3.28617311
 H                     2.00255272    -1.06899940    -3.85779668
 H                     0.65570938    -2.20084273    -3.62317338
 H                     0.39327183    -0.44949734    -3.52678233

 ==============================================================================
                                internuclear distances
 ------------------------------------------------------------------------------
       center one      |      center two      | atomic units |  angstroms
 ------------------------------------------------------------------------------
    2 O                |   1 C                |     2.29358  |     1.21371
    3 Ni               |   1 C                |     3.47672  |     1.83980
    4 C                |   3 Ni               |     3.56419  |     1.88609
    5 N                |   4 C                |     2.54362  |     1.34603
    6 N                |   4 C                |     2.52213  |     1.33465
    7 C                |   5 N                |     2.76431  |     1.46281
    8 C                |   5 N                |     2.69726  |     1.42733
    9 C                |   6 N                |     2.77315  |     1.46749
    9 C                |   7 C                |     2.89629  |     1.53265
   10 C                |   6 N                |     2.70125  |     1.42944
   11 H                |   7 C                |     2.06190  |     1.09111
   12 H                |   7 C                |     2.06685  |     1.09373
   13 C                |   8 C                |     2.64473  |     1.39953
   14 C                |   8 C                |     2.64586  |     1.40013
   15 H                |   9 C                |     2.06544  |     1.09299
   16 H                |   9 C                |     2.06022  |     1.09022
   17 C                |  10 C                |     2.64085  |     1.39748
   18 C                |  10 C                |     2.64152  |     1.39783
   19 C                |  13 C                |     2.62918  |     1.39130
   20 C                |  13 C                |     2.86482  |     1.51600
   21 C                |  14 C                |     2.62666  |     1.38997
   22 C                |  14 C                |     2.86485  |     1.51601
   23 C                |  17 C                |     2.62669  |     1.38999
   24 C                |  17 C                |     2.86669  |     1.51699
   25 C                |  18 C                |     2.62559  |     1.38940
   26 C                |  18 C                |     2.86627  |     1.51677
   27 C                |  19 C                |     2.61560  |     1.38412
   27 C                |  21 C                |     2.61847  |     1.38563
   28 H                |  19 C                |     2.04664  |     1.08304
   29 C                |  20 C                |     2.89349  |     1.53117
   30 C                |  20 C                |     2.88867  |     1.52862
   31 H                |  20 C                |     2.06308  |     1.09173
   32 H                |  21 C                |     2.04708  |     1.08327
   33 C                |  22 C                |     2.88803  |     1.52828
   34 C                |  22 C                |     2.89263  |     1.53071
   35 H                |  22 C                |     2.06341  |     1.09191
   36 C                |  23 C                |     2.61588  |     1.38427
   36 C                |  25 C                |     2.61700  |     1.38486
   37 H                |  23 C                |     2.04727  |     1.08337
   38 C                |  24 C                |     2.89355  |     1.53120
   39 C                |  24 C                |     2.88699  |     1.52773
   40 H                |  24 C                |     2.06467  |     1.09258
   41 H                |  25 C                |     2.04539  |     1.08237
   42 C                |  26 C                |     2.88828  |     1.52841
   43 C                |  26 C                |     2.89651  |     1.53277
   44 H                |  26 C                |     2.06461  |     1.09255
   45 H                |  27 C                |     2.04579  |     1.08259
   46 H                |  29 C                |     2.06331  |     1.09186
   47 H                |  29 C                |     2.06332  |     1.09186
   48 H                |  29 C                |     2.06240  |     1.09137
   49 H                |  30 C                |     2.06353  |     1.09198
   50 H                |  30 C                |     2.06284  |     1.09161
   51 H                |  30 C                |     2.06365  |     1.09203
   52 H                |  33 C                |     2.05880  |     1.08947
   53 H                |  33 C                |     2.06352  |     1.09197
   54 H                |  33 C                |     2.06288  |     1.09163
   55 H                |  34 C                |     2.06322  |     1.09181
   56 H                |  34 C                |     2.06240  |     1.09137
   57 H                |  34 C                |     2.06373  |     1.09208
   58 H                |  36 C                |     2.04615  |     1.08278
   59 H                |  38 C                |     2.06360  |     1.09201
   60 H                |  38 C                |     2.06330  |     1.09185
   61 H                |  38 C                |     2.06336  |     1.09188
   62 H                |  39 C                |     2.05851  |     1.08932
   63 H                |  39 C                |     2.06451  |     1.09249
   64 H                |  39 C                |     2.06351  |     1.09196
   65 H                |  42 C                |     2.05605  |     1.08801
   66 H                |  42 C                |     2.06424  |     1.09235
   67 H                |  42 C                |     2.06416  |     1.09231
   68 H                |  43 C                |     2.06327  |     1.09184
   69 H                |  43 C                |     2.06349  |     1.09195
   70 H                |  43 C                |     2.06439  |     1.09243
   71 N                |   3 Ni               |     3.50107  |     1.85268
   73 C                |  72 C                |     2.62377  |     1.38844
   75 C                |  72 C                |     2.62473  |     1.38895
   75 C                |  74 H                |     2.04696  |     1.08321
   76 C                |  73 C                |     2.61811  |     1.38544
   77 C                |   1 C                |     2.84455  |     1.50527
   77 C                |  76 C                |     2.63082  |     1.39217
   78 C                |  75 C                |     2.62190  |     1.38745
   78 C                |  77 C                |     2.62757  |     1.39045
   79 H                |  76 C                |     2.04455  |     1.08193
   80 H                |  78 C                |     2.04193  |     1.08055
   81 H                |  72 C                |     2.04626  |     1.08283
   82 H                |  73 C                |     2.04634  |     1.08288
   83 C                |  71 N                |     2.64471  |     1.39952
   84 C                |  83 C                |     2.64310  |     1.39867
   85 C                |  83 C                |     2.63907  |     1.39654
   86 C                |  84 C                |     2.61870  |     1.38576
   87 H                |  84 C                |     2.04659  |     1.08301
   88 C                |  85 C                |     2.61749  |     1.38512
   89 H                |  85 C                |     2.05193  |     1.08584
   90 C                |  86 C                |     2.62546  |     1.38933
   90 C                |  88 C                |     2.62413  |     1.38863
   91 H                |  86 C                |     2.04713  |     1.08330
   92 H                |  88 C                |     2.04758  |     1.08353
   93 H                |  90 C                |     2.04444  |     1.08187
   94 C                |  71 N                |     2.74703  |     1.45367
   95 H                |  94 C                |     2.06859  |     1.09465
   96 H                |  94 C                |     2.07021  |     1.09551
   97 H                |  94 C                |     2.05553  |     1.08774
 ------------------------------------------------------------------------------
                         number of included internuclear distances:        101
 ==============================================================================



 ==============================================================================
                                 internuclear angles
 ------------------------------------------------------------------------------
        center 1       |       center 2       |       center 3       |  degrees
 ------------------------------------------------------------------------------
    2 O                |   1 C                |   3 Ni               |   119.92
    2 O                |   1 C                |  77 C                |   120.10
    3 Ni               |   1 C                |  77 C                |   118.63
    1 C                |   3 Ni               |   4 C                |   115.36
    1 C                |   3 Ni               |  71 N                |    65.71
    4 C                |   3 Ni               |  71 N                |   175.64
    3 Ni               |   4 C                |   5 N                |   116.79
    3 Ni               |   4 C                |   6 N                |   135.65
    5 N                |   4 C                |   6 N                |   107.13
    4 C                |   5 N                |   7 C                |   114.20
    4 C                |   5 N                |   8 C                |   122.05
    7 C                |   5 N                |   8 C                |   123.49
    4 C                |   6 N                |   9 C                |   113.50
    4 C                |   6 N                |  10 C                |   125.12
    9 C                |   6 N                |  10 C                |   121.16
    5 N                |   7 C                |   9 C                |   101.48
    5 N                |   7 C                |  11 H                |   110.81
    5 N                |   7 C                |  12 H                |   110.70
    9 C                |   7 C                |  11 H                |   112.87
    9 C                |   7 C                |  12 H                |   112.68
   11 H                |   7 C                |  12 H                |   108.22
    5 N                |   8 C                |  13 C                |   118.79
    5 N                |   8 C                |  14 C                |   119.13
   13 C                |   8 C                |  14 C                |   122.08
    6 N                |   9 C                |   7 C                |   102.51
    6 N                |   9 C                |  15 H                |   109.84
    6 N                |   9 C                |  16 H                |   110.72
    7 C                |   9 C                |  15 H                |   112.32
    7 C                |   9 C                |  16 H                |   113.13
   15 H                |   9 C                |  16 H                |   108.23
    6 N                |  10 C                |  17 C                |   118.10
    6 N                |  10 C                |  18 C                |   119.42
   17 C                |  10 C                |  18 C                |   122.46
    8 C                |  13 C                |  19 C                |   117.94
    8 C                |  13 C                |  20 C                |   121.90
   19 C                |  13 C                |  20 C                |   120.15
    8 C                |  14 C                |  21 C                |   117.98
    8 C                |  14 C                |  22 C                |   121.85
   21 C                |  14 C                |  22 C                |   120.17
   10 C                |  17 C                |  23 C                |   117.89
   10 C                |  17 C                |  24 C                |   122.13
   23 C                |  17 C                |  24 C                |   119.97
   10 C                |  18 C                |  25 C                |   117.63
   10 C                |  18 C                |  26 C                |   121.96
   25 C                |  18 C                |  26 C                |   120.36
   13 C                |  19 C                |  27 C                |   120.88
   13 C                |  19 C                |  28 H                |   119.54
   27 C                |  19 C                |  28 H                |   119.58
   13 C                |  20 C                |  29 C                |   110.51
   13 C                |  20 C                |  30 C                |   111.71
   13 C                |  20 C                |  31 H                |   107.83
   29 C                |  20 C                |  30 C                |   111.30
   29 C                |  20 C                |  31 H                |   107.89
   30 C                |  20 C                |  31 H                |   107.41
   14 C                |  21 C                |  27 C                |   120.85
   14 C                |  21 C                |  32 H                |   119.57
   27 C                |  21 C                |  32 H                |   119.57
   14 C                |  22 C                |  33 C                |   111.70
   14 C                |  22 C                |  34 C                |   110.56
   14 C                |  22 C                |  35 H                |   108.02
   33 C                |  22 C                |  34 C                |   111.03
   33 C                |  22 C                |  35 H                |   107.07
   34 C                |  22 C                |  35 H                |   108.30
   17 C                |  23 C                |  36 C                |   120.70
   17 C                |  23 C                |  37 H                |   119.57
   36 C                |  23 C                |  37 H                |   119.73
   17 C                |  24 C                |  38 C                |   110.96
   17 C                |  24 C                |  39 C                |   111.53
   17 C                |  24 C                |  40 H                |   107.99
   38 C                |  24 C                |  39 C                |   110.98
   38 C                |  24 C                |  40 H                |   107.98
   39 C                |  24 C                |  40 H                |   107.20
   18 C                |  25 C                |  36 C                |   120.97
   18 C                |  25 C                |  41 H                |   119.49
   36 C                |  25 C                |  41 H                |   119.54
   18 C                |  26 C                |  42 C                |   112.93
   18 C                |  26 C                |  43 C                |   109.98
   18 C                |  26 C                |  44 H                |   107.82
   42 C                |  26 C                |  43 C                |   110.27
   42 C                |  26 C                |  44 H                |   107.29
   43 C                |  26 C                |  44 H                |   108.39
   19 C                |  27 C                |  21 C                |   120.24
   19 C                |  27 C                |  45 H                |   119.87
   21 C                |  27 C                |  45 H                |   119.89
   20 C                |  29 C                |  46 H                |   111.37
   20 C                |  29 C                |  47 H                |   111.02
   20 C                |  29 C                |  48 H                |   110.49
   46 H                |  29 C                |  47 H                |   107.63
   46 H                |  29 C                |  48 H                |   108.33
   47 H                |  29 C                |  48 H                |   107.88
   20 C                |  30 C                |  49 H                |   111.03
   20 C                |  30 C                |  50 H                |   110.33
   20 C                |  30 C                |  51 H                |   111.25
   49 H                |  30 C                |  50 H                |   108.34
   49 H                |  30 C                |  51 H                |   108.01
   50 H                |  30 C                |  51 H                |   107.75
   22 C                |  33 C                |  52 H                |   110.85
   22 C                |  33 C                |  53 H                |   111.42
   22 C                |  33 C                |  54 H                |   110.30
   52 H                |  33 C                |  53 H                |   108.09
   52 H                |  33 C                |  54 H                |   108.26
   53 H                |  33 C                |  54 H                |   107.82
   22 C                |  34 C                |  55 H                |   111.55
   22 C                |  34 C                |  56 H                |   110.59
   22 C                |  34 C                |  57 H                |   110.69
   55 H                |  34 C                |  56 H                |   108.42
   55 H                |  34 C                |  57 H                |   107.55
   56 H                |  34 C                |  57 H                |   107.90
   23 C                |  36 C                |  25 C                |   120.31
   23 C                |  36 C                |  58 H                |   119.85
   25 C                |  36 C                |  58 H                |   119.84
   24 C                |  38 C                |  59 H                |   111.72
   24 C                |  38 C                |  60 H                |   110.82
   24 C                |  38 C                |  61 H                |   110.51
   59 H                |  38 C                |  60 H                |   107.50
   59 H                |  38 C                |  61 H                |   108.39
   60 H                |  38 C                |  61 H                |   107.75
   24 C                |  39 C                |  62 H                |   111.09
   24 C                |  39 C                |  63 H                |   110.39
   24 C                |  39 C                |  64 H                |   111.13
   62 H                |  39 C                |  63 H                |   108.54
   62 H                |  39 C                |  64 H                |   107.80
   63 H                |  39 C                |  64 H                |   107.77
   26 C                |  42 C                |  65 H                |   110.64
   26 C                |  42 C                |  66 H                |   111.25
   26 C                |  42 C                |  67 H                |   109.76
   65 H                |  42 C                |  66 H                |   108.39
   65 H                |  42 C                |  67 H                |   109.45
   66 H                |  42 C                |  67 H                |   107.27
   26 C                |  43 C                |  68 H                |   112.18
   26 C                |  43 C                |  69 H                |   110.54
   26 C                |  43 C                |  70 H                |   110.15
   68 H                |  43 C                |  69 H                |   108.46
   68 H                |  43 C                |  70 H                |   107.44
   69 H                |  43 C                |  70 H                |   107.93
    3 Ni               |  71 N                |  83 C                |   122.14
    3 Ni               |  71 N                |  94 C                |   119.29
   83 C                |  71 N                |  94 C                |   114.83
   73 C                |  72 C                |  75 C                |   119.76
   73 C                |  72 C                |  81 H                |   120.06
   75 C                |  72 C                |  81 H                |   120.17
   72 C                |  73 C                |  76 C                |   120.02
   72 C                |  73 C                |  82 H                |   120.22
   76 C                |  73 C                |  82 H                |   119.75
   72 C                |  75 C                |  74 H                |   120.00
   72 C                |  75 C                |  78 C                |   120.18
   74 H                |  75 C                |  78 C                |   119.81
   73 C                |  76 C                |  77 C                |   120.45
   73 C                |  76 C                |  79 H                |   121.51
   77 C                |  76 C                |  79 H                |   118.04
    1 C                |  77 C                |  76 C                |   116.40
    1 C                |  77 C                |  78 C                |   124.07
   76 C                |  77 C                |  78 C                |   119.35
   75 C                |  78 C                |  77 C                |   120.22
   75 C                |  78 C                |  80 H                |   119.83
   77 C                |  78 C                |  80 H                |   119.95
   71 N                |  83 C                |  84 C                |   121.98
   71 N                |  83 C                |  85 C                |   119.78
   84 C                |  83 C                |  85 C                |   118.23
   83 C                |  84 C                |  86 C                |   120.57
   83 C                |  84 C                |  87 H                |   119.38
   86 C                |  84 C                |  87 H                |   120.05
   83 C                |  85 C                |  88 C                |   121.07
   83 C                |  85 C                |  89 H                |   118.34
   88 C                |  85 C                |  89 H                |   120.57
   84 C                |  86 C                |  90 C                |   120.67
   84 C                |  86 C                |  91 H                |   119.48
   90 C                |  86 C                |  91 H                |   119.85
   85 C                |  88 C                |  90 C                |   120.27
   85 C                |  88 C                |  92 H                |   119.45
   90 C                |  88 C                |  92 H                |   120.26
   86 C                |  90 C                |  88 C                |   119.18
   86 C                |  90 C                |  93 H                |   120.37
   88 C                |  90 C                |  93 H                |   120.44
   71 N                |  94 C                |  95 H                |   113.51
   71 N                |  94 C                |  96 H                |   109.54
   71 N                |  94 C                |  97 H                |   109.60
   95 H                |  94 C                |  96 H                |   108.27
   95 H                |  94 C                |  97 H                |   107.14
   96 H                |  94 C                |  97 H                |   108.65
 ------------------------------------------------------------------------------
                            number of included internuclear angles:        180
 ==============================================================================



                      Basis "ao basis" -> "" (cartesian)
                      -----
  C (Carbon)
  ----------
            Exponent  Coefficients 
       -------------- ---------------------------------------------------------
  1 S  1.23840169E+03  0.005457
  1 S  1.86290050E+02  0.040638
  1 S  4.22511763E+01  0.180256
  1 S  1.16765579E+01  0.463151
  1 S  3.59305065E+00  0.440872

  2 S  4.02451474E-01  1.000000

  3 S  1.30901827E-01  1.000000

  4 P  9.46809706E+00  0.038388
  4 P  2.01035451E+00  0.211170
  4 P  5.47710047E-01  0.513282

  5 P  1.52686138E-01  1.000000

  H (Hydrogen)
  ------------
            Exponent  Coefficients 
       -------------- ---------------------------------------------------------
  1 S  1.30107010E+01  0.019682
  1 S  1.96225720E+00  0.137965
  1 S  4.44537960E-01  0.478319

  2 S  1.21949620E-01  1.000000

  O (Oxygen)
  ----------
            Exponent  Coefficients 
       -------------- ---------------------------------------------------------
  1 S  2.26617678E+03 -0.005343
  1 S  3.40870102E+02 -0.039890
  1 S  7.73631352E+01 -0.178539
  1 S  2.14796449E+01 -0.464277
  1 S  6.65894331E+00 -0.443097

  2 S  8.09759757E-01  1.000000

  3 S  2.55307722E-01  1.000000

  4 P  1.77215043E+01  0.043395
  4 P  3.86355054E+00  0.230941
  4 P  1.04809209E+00  0.513753

  5 P  2.76415444E-01  1.000000

  N (Nitrogen)
  ------------
[...]
  ----- ------------  ---------------      ----- ------------  ---------------
   478     12.866628  84 C  s               487     12.137286  85 C  s         
   496    -11.568877  86 C  s               507    -11.584653  88 C  s         
   469    -11.276584  83 C  s               518     10.883451  90 C  s         
   452     -9.777383  78 C  s               434     -9.717132  76 C  s         
   414      9.582600  73 C  s               425      9.494148  75 C  s         

 Vector  526  Occ=0.000000D+00  E= 1.758813D+00
              MO Center=  1.6D+00,  8.4D-01, -1.3D-01, r^2= 1.4D+01
   Bfn.  Coefficient  Atom+Function         Bfn.  Coefficient  Atom+Function  
  ----- ------------  ---------------      ----- ------------  ---------------
   434     12.253056  76 C  s               425    -11.010686  75 C  s         
   414    -10.768883  73 C  s               452     10.480731  78 C  s         
   405      9.994252  72 C  s               220     -9.560338  25 C  s         
   113     -9.093161  10 C  s               202     -8.983406  23 C  s         
   157      8.913110  18 C  s               443     -8.736688  77 C  s         

 Vector  527  Occ=0.000000D+00  E= 1.762680D+00
              MO Center= -6.0D-01,  7.1D-01,  1.8D-01, r^2= 1.7D+01
   Bfn.  Coefficient  Atom+Function         Bfn.  Coefficient  Atom+Function  
  ----- ------------  ---------------      ----- ------------  ---------------
   202     12.114482  23 C  s               220     11.982827  25 C  s         
   157    -11.381764  18 C  s               100     11.066437   8 C  py        
   291    -10.435289  36 C  s               148    -10.306789  17 C  s         
   113     10.246716  10 C  s               118     10.297354  10 C  py        
   184    -10.089893  21 C  s               166     -9.989208  19 C  s         

 Vector  528  Occ=0.000000D+00  E= 1.819238D+00
              MO Center=  4.0D-01, -3.5D-01, -1.1D+00, r^2= 9.5D+00
   Bfn.  Coefficient  Atom+Function         Bfn.  Coefficient  Atom+Function  
  ----- ------------  ---------------      ----- ------------  ---------------
    22     21.725767   3 Ni s                23     -8.188890   3 Ni s         
   166      5.890110  19 C  s                56     -5.500773   3 Ni dzz       
    51     -4.911982   3 Ni dxx              54     -4.798509   3 Ni dyy       
   238     -4.489245  27 C  s               184      4.422110  21 C  s         
   135     -4.222764  14 C  s               220      4.179837  25 C  s         

 Vector  529  Occ=0.000000D+00  E= 1.881498D+00
              MO Center= -1.6D+00,  5.0D-01,  5.2D-01, r^2= 5.6D+00
   Bfn.  Coefficient  Atom+Function         Bfn.  Coefficient  Atom+Function  
  ----- ------------  ---------------      ----- ------------  ---------------
    22      6.474885   3 Ni s               100     -5.147486   8 C  py        
    73     -4.420039   5 N  py               86      4.209258   7 C  s         
   104     -4.150902   9 C  s                23     -3.682820   3 Ni s         
    81     -3.428461   6 N  px               68      3.316245   5 N  s         
   118     -3.016275  10 C  py              175     -2.834258  20 C  s         

 Vector  530  Occ=0.000000D+00  E= 1.943812D+00
              MO Center=  9.7D-01,  5.5D-01, -1.5D+00, r^2= 6.1D+00
   Bfn.  Coefficient  Atom+Function         Bfn.  Coefficient  Atom+Function  
  ----- ------------  ---------------      ----- ------------  ---------------
    22     12.161704   3 Ni s                12     -6.666127   2 O  s         
    23     -5.869566   3 Ni s               113     -5.050040  10 C  s         
     3      4.304327   1 C  s               157      3.837547  18 C  s         
     9     -3.650213   1 C  pz              148      3.608122  17 C  s         
   166      3.368885  19 C  s                54     -3.272999   3 Ni dyy       

 Vector  531  Occ=0.000000D+00  E= 2.856845D+00
              MO Center=  6.8D-02, -4.5D-01, -8.6D-01, r^2= 2.4D+00
   Bfn.  Coefficient  Atom+Function         Bfn.  Coefficient  Atom+Function  
  ----- ------------  ---------------      ----- ------------  ---------------
    22      8.634767   3 Ni s                21      5.762265   3 Ni s         
    23     -4.932244   3 Ni s                20     -2.993330   3 Ni s         
    45     -2.685300   3 Ni dxx              48     -2.686011   3 Ni dyy       
    50     -2.680256   3 Ni dzz             487      1.697360  85 C  s         
   396     -1.544730  71 N  s               507     -1.453926  88 C  s         

 Vector  532  Occ=0.000000D+00  E= 3.091216D+00
              MO Center=  2.5D-01, -4.6D-01, -6.0D-01, r^2= 1.3D+00
   Bfn.  Coefficient  Atom+Function         Bfn.  Coefficient  Atom+Function  
  ----- ------------  ---------------      ----- ------------  ---------------
    22      3.991242   3 Ni s                21      1.376050   3 Ni s         
    23     -1.293472   3 Ni s                 7      1.190326   1 C  px        
   447      1.152141  77 C  px               32     -1.124465   3 Ni pz        
     9      1.080683   1 C  pz              396     -1.057663  71 N  s         
    33      1.042594   3 Ni px               29      0.997413   3 Ni pz        

 Vector  533  Occ=0.000000D+00  E= 3.311091D+00
              MO Center=  2.1D-01, -3.9D-01, -7.5D-01, r^2= 1.3D+00
   Bfn.  Coefficient  Atom+Function         Bfn.  Coefficient  Atom+Function  
  ----- ------------  ---------------      ----- ------------  ---------------
     3      2.559026   1 C  s               448      2.096851  77 C  py        
   434     -2.007499  76 C  s                 8     -1.782458   1 C  py        
   452      1.581913  78 C  s               396     -1.478686  71 N  s         
    31     -1.452588   3 Ni py              447      1.211717  77 C  px        
    28      1.205345   3 Ni py               77      1.045837   6 N  s         

 Vector  534  Occ=0.000000D+00  E= 3.419460D+00
              MO Center=  1.3D-01, -4.4D-01, -7.2D-01, r^2= 1.4D+00
   Bfn.  Coefficient  Atom+Function         Bfn.  Coefficient  Atom+Function  
  ----- ------------  ---------------      ----- ------------  ---------------
   434     -1.537773  76 C  s                 3      1.529632   1 C  s         
   478     -1.498243  84 C  s               448      1.458652  77 C  py        
    64      1.402522   4 C  py              473      1.365217  83 C  px        
    30     -1.342954   3 Ni px              487      1.211566  85 C  s         
    33     -1.166715   3 Ni px               77     -1.150946   6 N  s         

 Vector  535  Occ=0.000000D+00  E= 4.755837D+00
              MO Center=  9.4D-02, -4.5D-01, -7.2D-01, r^2= 6.0D-01
   Bfn.  Coefficient  Atom+Function         Bfn.  Coefficient  Atom+Function  
  ----- ------------  ---------------      ----- ------------  ---------------
    49      1.629312   3 Ni dyz              43     -1.314970   3 Ni dyz       
    46      1.194740   3 Ni dxy              40     -0.967369   3 Ni dxy       
     3      0.906381   1 C  s                55     -0.860968   3 Ni dyz       
    52     -0.592935   3 Ni dxy               9      0.551275   1 C  pz        
    68      0.537725   5 N  s               487      0.491707  85 C  s         

 Vector  536  Occ=0.000000D+00  E= 4.799891D+00
              MO Center=  9.1D-02, -4.6D-01, -7.2D-01, r^2= 6.4D-01
   Bfn.  Coefficient  Atom+Function         Bfn.  Coefficient  Atom+Function  
  ----- ------------  ---------------      ----- ------------  ---------------
    95      1.162524   8 C  s                48      1.046316   3 Ni dyy       
    47     -0.846442   3 Ni dxz               9     -0.827123   1 C  pz        
   135     -0.829423  14 C  s               443      0.811466  77 C  s         
    12     -0.803584   2 O  s                45     -0.802857   3 Ni dxx       
    42     -0.790828   3 Ni dyy              64      0.789086   4 C  py        

 Vector  537  Occ=0.000000D+00  E= 4.823079D+00
              MO Center=  8.6D-02, -4.6D-01, -7.3D-01, r^2= 6.4D-01
   Bfn.  Coefficient  Atom+Function         Bfn.  Coefficient  Atom+Function  
  ----- ------------  ---------------      ----- ------------  ---------------
    22      1.960949   3 Ni s                 3     -1.245538   1 C  s         
    56     -1.154853   3 Ni dzz              50      0.985286   3 Ni dzz       
    44     -0.943296   3 Ni dzz              45     -0.897517   3 Ni dxx       
    33      0.849857   3 Ni px               64     -0.790030   4 C  py        
    77      0.787911   6 N  s                48     -0.718876   3 Ni dyy       

 Vector  538  Occ=0.000000D+00  E= 4.920096D+00
              MO Center=  7.1D-02, -4.6D-01, -7.1D-01, r^2= 7.0D-01
   Bfn.  Coefficient  Atom+Function         Bfn.  Coefficient  Atom+Function  
  ----- ------------  ---------------      ----- ------------  ---------------
    22      2.701413   3 Ni s                47      1.460583   3 Ni dxz       
    46     -1.188457   3 Ni dxy              41     -1.113065   3 Ni dxz       
    53     -1.109359   3 Ni dxz              95     -1.069433   8 C  s         
    40      0.908534   3 Ni dxy              52      0.901528   3 Ni dxy       
    64      0.786933   4 C  py               45     -0.750745   3 Ni dxx       

 Vector  539  Occ=0.000000D+00  E= 5.089005D+00
              MO Center=  9.5D-02, -4.6D-01, -7.3D-01, r^2= 7.0D-01
   Bfn.  Coefficient  Atom+Function         Bfn.  Coefficient  Atom+Function  
  ----- ------------  ---------------      ----- ------------  ---------------
    22      2.523300   3 Ni s                52     -1.439008   3 Ni dxy       
    53     -1.415104   3 Ni dxz              47      1.371108   3 Ni dxz       
    46      1.362214   3 Ni dxy              55      1.189968   3 Ni dyz       
    49     -1.152172   3 Ni dyz              59     -1.138585   4 C  s         
    33     -1.066943   3 Ni px               63     -1.061234   4 C  px        

 Vector  540  Occ=0.000000D+00  E= 1.021071D+01
              MO Center=  1.0D-01, -4.6D-01, -7.3D-01, r^2= 6.2D-01
   Bfn.  Coefficient  Atom+Function         Bfn.  Coefficient  Atom+Function  
  ----- ------------  ---------------      ----- ------------  ---------------
    21     27.650523   3 Ni s                20    -17.421195   3 Ni s         
    45     -7.524710   3 Ni dxx              48     -7.487063   3 Ni dyy       
    50     -7.463961   3 Ni dzz              22      3.948263   3 Ni s         
    23     -2.018251   3 Ni s                19      1.506336   3 Ni s         
    56     -0.617421   3 Ni dzz              54     -0.569156   3 Ni dyy       

 Vector  541  Occ=0.000000D+00  E= 4.990989D+01
              MO Center=  9.6D-02, -4.5D-01, -7.3D-01, r^2= 1.1D-01
   Bfn.  Coefficient  Atom+Function         Bfn.  Coefficient  Atom+Function  
  ----- ------------  ---------------      ----- ------------  ---------------
    20     21.380271   3 Ni s                21    -20.660212   3 Ni s         
    45      5.138746   3 Ni dxx              48      5.131315   3 Ni dyy       
    50      5.125206   3 Ni dzz              19     -4.349418   3 Ni s         
    39     -2.734566   3 Ni dxx              42     -2.732311   3 Ni dyy       
    44     -2.730167   3 Ni dzz              22     -1.818302   3 Ni s         

 Vector  542  Occ=0.000000D+00  E= 1.174056D+02
              MO Center=  9.5D-02, -4.5D-01, -7.3D-01, r^2= 2.9D-02
   Bfn.  Coefficient  Atom+Function         Bfn.  Coefficient  Atom+Function  
  ----- ------------  ---------------      ----- ------------  ---------------
    26      0.877372   3 Ni pz               24      0.515073   3 Ni px        
    29     -0.331811   3 Ni pz               25     -0.314344   3 Ni py        
    27     -0.194831   3 Ni px               32      0.171520   3 Ni pz        
    22     -0.129440   3 Ni s                28      0.118813   3 Ni py        
    30      0.101006   3 Ni px               33     -0.077486   3 Ni px        

 Vector  543  Occ=0.000000D+00  E= 1.175737D+02
              MO Center=  9.5D-02, -4.5D-01, -7.3D-01, r^2= 3.1D-02
   Bfn.  Coefficient  Atom+Function         Bfn.  Coefficient  Atom+Function  
  ----- ------------  ---------------      ----- ------------  ---------------
    25      1.018091   3 Ni py               28     -0.392956   3 Ni py        
    26      0.278925   3 Ni pz               31      0.216703   3 Ni py        
     3     -0.189079   1 C  s               448     -0.167480  77 C  py        
   434      0.155231  76 C  s                 8      0.149549   1 C  py        
    24      0.146234   3 Ni px              452     -0.129252  78 C  s         

 Vector  544  Occ=0.000000D+00  E= 1.176329D+02
              MO Center=  9.5D-02, -4.5D-01, -7.3D-01, r^2= 3.1D-02
   Bfn.  Coefficient  Atom+Function         Bfn.  Coefficient  Atom+Function  
  ----- ------------  ---------------      ----- ------------  ---------------
    24      0.921528   3 Ni px               26     -0.535815   3 Ni pz        
    27     -0.359071   3 Ni px               29      0.208736   3 Ni pz        
    30      0.203919   3 Ni px              434      0.155572  76 C  s         
   448     -0.152119  77 C  py                3     -0.128264   1 C  s         
    32     -0.118372   3 Ni pz              478      0.117470  84 C  s         

 Vector  545  Occ=0.000000D+00  E= 6.766570D+02
              MO Center=  9.5D-02, -4.5D-01, -7.3D-01, r^2= 2.3D-02
   Bfn.  Coefficient  Atom+Function         Bfn.  Coefficient  Atom+Function  
  ----- ------------  ---------------      ----- ------------  ---------------
    20     28.883380   3 Ni s                21    -15.355444   3 Ni s         
    39     -7.285521   3 Ni dxx              42     -7.286408   3 Ni dyy       
    44     -7.286696   3 Ni dzz              19     -4.276655   3 Ni s         
    45      3.411298   3 Ni dxx              48      3.414389   3 Ni dyy       
    50      3.415327   3 Ni dzz              51      0.131837   3 Ni dxx       


 center of mass
 --------------
 x =   0.06028058 y =  -0.01799407 z =  -0.03305456

 moments of inertia (a.u.)
 ------------------
       24588.663630462259          -0.000000000001           0.000000000001
          -0.000000000001       21174.745857580201          -0.000000000000
           0.000000000001          -0.000000000000       29463.544069207495

     Multipole analysis of the density
     ---------------------------------

     L   x y z        total         alpha         beta         nuclear
     -   - - -        -----         -----         ----         -------
     0   0 0 0      0.000000   -172.000000   -172.000000    344.000000

     1   1 0 0     -2.139456     -0.173233     -0.173233     -1.792990
     1   0 1 0      0.094173     -4.203985     -4.203985      8.502142
     1   0 0 1      1.786556     -5.968381     -5.968381     13.723318

     2   2 0 0   -203.894201  -3725.211996  -3725.211996   7246.529791
     2   1 1 0      2.936855     -0.785598     -0.785598      4.508051
     2   1 0 1      3.602299    -46.906511    -46.906511     97.415321
     2   0 2 0   -205.320888  -4634.059720  -4634.059720   9062.798552
     2   0 1 1      0.010132      3.076639      3.076639     -6.143147
     2   0 0 2   -208.221412  -2470.891560  -2470.891560   4733.561708


 Task  times  cpu:     4424.8s     wall:     4424.8s


                                NWChem Input Module
                                -------------------


 Summary of allocated global arrays
-----------------------------------
  No active global arrays


MA_summarize_allocated_blocks: starting scan ...
heap block 'gridpts', handle 106, address 0x5c77f4a501a0:
	type of elements:		double precision
	number of elements:		203683869
	address of client space:	0x5c77f4a50200
	index for client space:		132223259
	total number of bytes:		1629471056
MA_summarize_allocated_blocks: scan completed: 1 heap block, 0 stack blocks
MA usage statistics:

	allocation statistics:
					      heap	     stack
					      ----	     -----
	current number of blocks	         1	         0
	maximum number of blocks	        34	        58
	current total bytes		1629471056	         0
	maximum total bytes		1648841992	  43923208
	maximum total K-bytes		   1648842	     43924
	maximum total M-bytes		      1649	        44


                                     CITATION
                                     --------
                Please cite the following reference when publishing
                           results obtained with NWChem:

          E. Apra, E. J. Bylaska, W. A. de Jong, N. Govind, K. Kowalski,
       T. P. Straatsma, M. Valiev, H. J. J. van Dam, Y. Alexeev, J. Anchell,
       V. Anisimov, F. W. Aquino, R. Atta-Fynn, J. Autschbach, N. P. Bauman,
     J. C. Becca, D. E. Bernholdt, K. Bhaskaran-Nair, S. Bogatko, P. Borowski,
         J. Boschen, J. Brabec, A. Bruner, E. Cauet, Y. Chen, G. N. Chuev,
      C. J. Cramer, J. Daily, M. J. O. Deegan, T. H. Dunning Jr., M. Dupuis,
   K. G. Dyall, G. I. Fann, S. A. Fischer, A. Fonari, H. Fruchtl, L. Gagliardi,
      J. Garza, N. Gawande, S. Ghosh, K. Glaesemann, A. W. Gotz, J. Hammond,
       V. Helms, E. D. Hermes, K. Hirao, S. Hirata, M. Jacquelin, L. Jensen,
   B. G. Johnson, H. Jonsson, R. A. Kendall, M. Klemm, R. Kobayashi, V. Konkov,
      S. Krishnamoorthy, M. Krishnan, Z. Lin, R. D. Lins, R. J. Littlefield,
      A. J. Logsdail, K. Lopata, W. Ma, A. V. Marenich, J. Martin del Campo,
   D. Mejia-Rodriguez, J. E. Moore, J. M. Mullin, T. Nakajima, D. R. Nascimento,
    J. A. Nichols, P. J. Nichols, J. Nieplocha, A. Otero-de-la-Roza, B. Palmer,
    A. Panyala, T. Pirojsirikul, B. Peng, R. Peverati, J. Pittner, L. Pollack,
   R. M. Richard, P. Sadayappan, G. C. Schatz, W. A. Shelton, D. W. Silverstein,
   D. M. A. Smith, T. A. Soares, D. Song, M. Swart, H. L. Taylor, G. S. Thomas,
            V. Tipparaju, D. G. Truhlar, K. Tsemekhman, T. Van Voorhis,
      A. Vazquez-Mayagoitia, P. Verma, O. Villa, A. Vishnu, K. D. Vogiatzis,
        D. Wang, J. H. Weare, M. J. Williamson, T. L. Windus, K. Wolinski,
        A. T. Wong, Q. Wu, C. Yang, Q. Yu, M. Zacharias, Z. Zhang, Y. Zhao,
                                and R. J. Harrison
                        "NWChem: Past, present, and future
                         J. Chem. Phys. 152, 184102 (2020)
                               doi:10.1063/5.0004997

                                      AUTHORS
                                      -------
  E. Apra, E. J. Bylaska, N. Govind, K. Kowalski, M. Valiev, D. Mejia-Rodriguez,
       A. Kunitsa, N. P. Bauman, A. Panyala, W. A. de Jong, T. P. Straatsma,
   H. J. J. van Dam, D. Wang, T. L. Windus, J. Hammond, J. Autschbach, A. Woods,
    K. Bhaskaran-Nair, J. Brabec, K. Lopata, S. A. Fischer, S. Krishnamoorthy,
     M. Jacquelin, W. Ma, M. Klemm, O. Villa, Y. Chen, V. Anisimov, F. Aquino,
     S. Hirata, M. T. Hackler, E. Hermes, L. Jensen, J. E. Moore, J. C. Becca,
      V. Konjkov, T. Risthaus, M. Malagoli, A. Marenich, A. Otero-de-la-Roza,
        J. Mullin, P. Nichols, R. Peverati, J. Pittner, Y. Zhao, P.-D. Fan,
        A. Fonari, M. J. Williamson, R. J. Harrison, J. R. Rehr, M. Dupuis,
     D. Silverstein, D. M. A. Smith, J. Nieplocha, V. Tipparaju, M. Krishnan,
     B. E. Van Kuiken, A. Vazquez-Mayagoitia, M. Swart, Q. Wu, T. Van Voorhis,
     A. A. Auer, M. Nooijen, L. D. Crosby, E. Brown, G. Cisneros, G. I. Fann,
   H. Fruchtl, J. Garza, K. Hirao, R. A. Kendall, J. A. Nichols, K. Tsemekhman,
    K. Wolinski, J. Anchell, D. E. Bernholdt, P. Borowski, T. Clark, D. Clerc,
   H. Dachsel, M. J. O. Deegan, K. Dyall, D. Elwood, E. Glendening, M. Gutowski,
   A. C. Hess, J. Jaffe, B. G. Johnson, J. Ju, R. Kobayashi, R. Kutteh, Z. Lin,
   R. Littlefield, X. Long, B. Meng, T. Nakajima, S. Niu, L. Pollack, M. Rosing,
   K. Glaesemann, G. Sandrone, M. Stave, H. Taylor, G. Thomas, J. H. van Lenthe,
                               A. T. Wong, Z. Zhang.

 Total times  cpu:     4425.3s     wall:     4425.3s
