 argument  1 = nwchem.in
  NWChem w/ OpenMP: maximum threads =    1
                                         
                                         


             Northwest Computational Chemistry Package (NWChem) 7.2.3
             --------------------------------------------------------


                    Environmental Molecular Sciences Laboratory
                       Pacific Northwest National Laboratory
                                Richland, WA 99352

                              Copyright (c) 1994-2022
                       Pacific Northwest National Laboratory
                            Battelle Memorial Institute

             NWChem is an open-source computational chemistry package
                        distributed under the terms of the
                      Educational Community License (ECL) 2.0
             A copy of the license is included with this distribution
                              in the LICENSE.TXT file

                                  ACKNOWLEDGMENT
                                  --------------

            This software and its documentation were developed at the
            EMSL at Pacific Northwest National Laboratory, a multiprogram
            national laboratory, operated for the U.S. Department of Energy
            by Battelle under Contract Number DE-AC05-76RL01830. Support
            for this work was provided by the Department of Energy Office
            of Biological and Environmental Research, Office of Basic
            Energy Sciences, and the Office of Advanced Scientific Computing.


           Job information
           ---------------

    hostname        = 25d2a143b64e
    program         = nwchem
    date            = Thu Jul  3 11:51:42 2025

    compiled        = Fri_May_02_22:05:35_2025
    source          = /opt/nwchem
    nwchem branch   = 7.2.3
    nwchem revision = N/A
    ga revision     = 5.9.1
    use scalapack   = T
    input           = nwchem.in
    prefix          = ni_singlepoint.
    data base       = ./ni_singlepoint.db
    status          = startup
    nproc           =        5
    time left       =     -1s



           Memory information
           ------------------

    heap     =    509724444 doubles =     3888.9 Mbytes
    stack    =    509724445 doubles =     3888.9 Mbytes
    global   =    291271111 doubles =     2222.2 Mbytes (distinct from heap & stack)
    total    =   1310720000 doubles =    10000.0 Mbytes
    verify   = yes
    hardfail = no 


           Directory information
           ---------------------

  0 permanent = .
  0 scratch   = .




                                NWChem Input Module
                                -------------------


                          Ni complex single-point energy
                          ------------------------------

 Scaling coordinates for geometry "geometry" by  1.889725989
 (inverse scale =  0.529177249)

 C1  symmetry detected

          ------
          auto-z
          ------
  no constraints, skipping    0.0000000000000000     
  no constraints, skipping    0.0000000000000000     


                             Geometry "geometry" -> ""
                             -------------------------

 Output coordinates in angstroms (scale by  1.889725989 to convert to a.u.)

  No.       Tag          Charge          X              Y              Z
 ---- ---------------- ---------- -------------- -------------- --------------
    1 C                    6.0000     1.41807676     0.84216715    -1.13342234
    2 O                    8.0000     1.33030883     1.62604278    -2.04811820
    3 Ni                  28.0000     0.08594794    -0.38853867    -0.84899223
    4 C                    6.0000    -1.07967003     0.53263280     0.32724554
    5 N                    7.0000    -1.95264299    -0.22001972     1.01759263
    6 N                    7.0000    -1.39432591     1.80992387     0.54674909
    7 C                    6.0000    -2.94231964     0.54978351     1.77220965
    8 C                    6.0000    -1.90337385    -1.64803417     1.05371947
    9 C                    6.0000    -2.60071121     1.98565622     1.36411096
   10 C                    6.0000    -0.69999712     2.94778801     0.02751258
   11 H                    1.0000    -3.95300208     0.25636002     1.48422053
   12 H                    1.0000    -2.82892709     0.37893174     2.84440955
   13 C                    6.0000    -2.49005844    -2.37400642     0.01036901
   14 C                    6.0000    -1.27525068    -2.27492485     2.13794687
   15 H                    1.0000    -3.38809751     2.45169106     0.76801395
   16 H                    1.0000    -2.39255290     2.63086184     2.21720929
   17 C                    6.0000     0.22697149     3.58994364     0.85421546
   18 C                    6.0000    -0.98503476     3.38993867    -1.26617566
   19 C                    6.0000    -2.41546901    -3.76253117     0.06458662
   20 C                    6.0000    -3.23587359    -1.69627880    -1.12393416
   21 C                    6.0000    -1.25088503    -3.66375696     2.16206718
   22 C                    6.0000    -0.62425935    -1.48323539     3.25584370
   23 C                    6.0000     0.90043039     4.69124647     0.33872071
   24 C                    6.0000     0.46396400     3.15546705     2.28937641
   25 C                    6.0000    -0.29409432     4.49956686    -1.73600082
   26 C                    6.0000    -2.02030557     2.70690560    -2.13838481
   27 C                    6.0000    -1.80730934    -4.40165103     1.12991868
   28 H                    1.0000    -2.83876295    -4.35084956    -0.73929420
   29 C                    6.0000    -4.74546397    -1.87501690    -0.93265529
   30 C                    6.0000    -2.79367681    -2.19891710    -2.49841802
   31 H                    1.0000    -3.01650197    -0.62714411    -1.08049251
   32 H                    1.0000    -0.76760568    -4.17607876     2.98491977
   33 C                    6.0000     0.81674697    -1.93277427     3.50594577
   34 C                    6.0000    -1.44469755    -1.58309208     4.54511965
   35 H                    1.0000    -0.58793246    -0.43549738     2.94803171
   36 C                    6.0000     0.64515831     5.13971999    -0.94606059
   37 H                    1.0000     1.63269475     5.20453540     0.94969631
   38 C                    6.0000    -0.13904472     4.18025579     3.25687784
   39 C                    6.0000     1.94250113     2.93490760     2.60747287
   40 H                    1.0000    -0.04499081     2.20002576     2.44040792
   41 H                    1.0000    -0.47876073     4.85727734    -2.74080194
   42 C                    6.0000    -1.51015000     2.44911561    -3.55639268
   43 C                    6.0000    -3.31458884     3.52609717    -2.17238467
   44 H                    1.0000    -2.24285477     1.73459496    -1.69352482
   45 H                    1.0000    -1.75373717    -5.48254300     1.15025707
   46 H                    1.0000    -5.07708978    -1.49429407     0.03567733
   47 H                    1.0000    -5.01436744    -2.93245503    -0.98086525
   48 H                    1.0000    -5.29603801    -1.35032503    -1.71544273
   49 H                    1.0000    -1.71218268    -2.11371292    -2.61698716
   50 H                    1.0000    -3.27969906    -1.61387850    -3.28160243
   51 H                    1.0000    -3.07332054    -3.24348468    -2.64937261
   52 H                    1.0000     1.39651417    -1.94373696     2.58306671
   53 H                    1.0000     0.84972790    -2.93623090     3.93469522
   54 H                    1.0000     1.30524181    -1.25679005     4.21008330
   55 H                    1.0000    -2.47620309    -1.25839831     4.39779284
   56 H                    1.0000    -1.00014964    -0.97149882     5.33243148
   57 H                    1.0000    -1.47496074    -2.61612240     4.89810307
   58 H                    1.0000     1.18326679     5.99492532    -1.33496005
   59 H                    1.0000    -1.19574170     4.36322849     3.05284373
   60 H                    1.0000     0.37911436     5.13735200     3.16755402
   61 H                    1.0000    -0.04023782     3.83968005     4.28948861
   62 H                    1.0000     2.38892926     2.19763943     1.94249288
   63 H                    1.0000     2.05374842     2.58329461     3.63539082
   64 H                    1.0000     2.51024824     3.86283916     2.51496300
   65 H                    1.0000    -0.54494062     1.94582234    -3.53056510
   66 H                    1.0000    -1.39717871     3.38177365    -4.11338704
   67 H                    1.0000    -2.22488320     1.82958159    -4.10207641
   68 H                    1.0000    -3.71625651     3.69753892    -1.17171702
   69 H                    1.0000    -4.07632410     3.01639283    -2.76580721
   70 H                    1.0000    -3.13317164     4.50386200    -2.62431375
   71 N                    7.0000     0.78474588    -1.57937606    -2.06296059
   72 C                    6.0000     4.96694896     0.72792560     1.25294549
   73 C                    6.0000     4.79804058     1.72523633     0.29807205
   74 H                    1.0000     4.13063470    -1.03132328     2.15742954
   75 C                    6.0000     3.99263656    -0.24590979     1.42480677
   76 C                    6.0000     3.65079727     1.75399447    -0.47741157
   77 C                    6.0000     2.66673684     0.78564821    -0.29779332
   78 C                    6.0000     2.84433570    -0.21492298     0.64698352
   79 H                    1.0000     3.49172561     2.51808016    -1.22775696
   80 H                    1.0000     2.08232470    -0.97759625     0.75270097
   81 H                    1.0000     5.86465755     0.70700098     1.85813429
   82 H                    1.0000     5.56539904     2.47667140     0.16022576
   83 C                    6.0000     1.50799684    -2.68726438    -1.66606831
   84 C                    6.0000     2.48855759    -3.30830505    -2.45804341
   85 C                    6.0000     1.24357934    -3.26814984    -0.41030106
   86 C                    6.0000     3.15734517    -4.43966868    -2.00855229
   87 H                    1.0000     2.73869375    -2.90609540    -3.42911925
   88 C                    6.0000     1.91553723    -4.39062594     0.02818349
   89 H                    1.0000     0.46679320    -2.82934838     0.20733050
   90 C                    6.0000     2.88478795    -4.99480476    -0.76880016
   91 H                    1.0000     3.90871799    -4.89048429    -2.64626822
   92 H                    1.0000     1.66903475    -4.81080512     0.99734140
   93 H                    1.0000     3.40710496    -5.88040884    -0.43189055
   94 C                    6.0000     0.99860067    -1.13793528    -3.42834982
   95 H                    1.0000     2.02610281    -0.79783938    -3.61633888
   96 H                    1.0000     0.77730251    -1.94071601    -4.14218962
   97 H                    1.0000     0.33994686    -0.29840489    -3.64368570

      Atomic Mass 
      ----------- 

      C                 12.000000
      O                 15.994910
      Ni                57.935300
      N                 14.003070
      H                  1.007825


 Effective nuclear repulsion energy (a.u.)    7262.2510246033

            Nuclear Dipole moment (a.u.) 
            ----------------------------
        X                 Y               Z
 ---------------- ---------------- ----------------
     0.0000000000     0.0000000000    -0.0000000000



                                Z-matrix (autoz)
                                -------- 

 Units are Angstrom for bonds and degrees for angles

      Type          Name      I     J     K     L     M      Value
      ----------- --------  ----- ----- ----- ----- ----- ----------
    1 Stretch                  1     2                       1.20782
    2 Stretch                  1     3                       1.83578
    3 Stretch                  1    77                       1.50354
    4 Stretch                  3     4                       1.89493
    5 Stretch                  3    71                       1.83851
    6 Stretch                  4     5                       1.34356
    7 Stretch                  4     6                       1.33367
    8 Stretch                  5     7                       1.46339
    9 Stretch                  5     8                       1.42932
   10 Stretch                  6     9                       1.46776
   11 Stretch                  6    10                       1.43054
   12 Stretch                  7     9                       1.53133
   13 Stretch                  7    11                       1.09111
   14 Stretch                  7    12                       1.09163
   15 Stretch                  8    13                       1.39993
   16 Stretch                  8    14                       1.40110
   17 Stretch                  9    15                       1.09202
   18 Stretch                  9    16                       1.08968
   19 Stretch                 10    17                       1.39824
   20 Stretch                 10    18                       1.39656
   21 Stretch                 13    19                       1.39158
   22 Stretch                 13    20                       1.51730
   23 Stretch                 14    21                       1.38926
   24 Stretch                 14    22                       1.51666
   25 Stretch                 17    23                       1.39002
   26 Stretch                 17    24                       1.51810
   27 Stretch                 18    25                       1.38903
   28 Stretch                 18    26                       1.51627
   29 Stretch                 19    27                       1.38321
   30 Stretch                 19    28                       1.08237
   31 Stretch                 20    29                       1.53212
   32 Stretch                 20    30                       1.52885
   33 Stretch                 20    31                       1.09227
   34 Stretch                 21    27                       1.38543
   35 Stretch                 21    32                       1.08311
   36 Stretch                 22    33                       1.53008
   37 Stretch                 22    34                       1.53144
   38 Stretch                 22    35                       1.09262
   39 Stretch                 23    36                       1.38454
   40 Stretch                 23    37                       1.08304
   41 Stretch                 24    38                       1.53293
   42 Stretch                 24    39                       1.52837
   43 Stretch                 24    40                       1.09303
   44 Stretch                 25    36                       1.38420
   45 Stretch                 25    41                       1.08244
   46 Stretch                 26    42                       1.52888
   47 Stretch                 26    43                       1.53212
   48 Stretch                 26    44                       1.09216
   49 Stretch                 27    45                       1.08241
   50 Stretch                 29    46                       1.09206
   51 Stretch                 29    47                       1.09216
   52 Stretch                 29    48                       1.09142
   53 Stretch                 30    49                       1.09131
   54 Stretch                 30    50                       1.09173
   55 Stretch                 30    51                       1.09184
   56 Stretch                 33    52                       1.08993
   57 Stretch                 33    53                       1.09171
   58 Stretch                 33    54                       1.09151
   59 Stretch                 34    55                       1.09139
   60 Stretch                 34    56                       1.09157
   61 Stretch                 34    57                       1.09209
   62 Stretch                 36    58                       1.08267
   63 Stretch                 38    59                       1.09166
   64 Stretch                 38    60                       1.09202
   65 Stretch                 38    61                       1.09181
   66 Stretch                 39    62                       1.08860
   67 Stretch                 39    63                       1.09207
   68 Stretch                 39    64                       1.09177
   69 Stretch                 42    65                       1.08885
   70 Stretch                 42    66                       1.09218
   71 Stretch                 42    67                       1.09199
   72 Stretch                 43    68                       1.09182
   73 Stretch                 43    69                       1.09187
   74 Stretch                 43    70                       1.09233
   75 Stretch                 71    83                       1.38132
   76 Stretch                 71    94                       1.45082
   77 Stretch                 72    73                       1.39102
   78 Stretch                 72    75                       1.38823
   79 Stretch                 72    81                       1.08285
   80 Stretch                 73    76                       1.38505
   81 Stretch                 73    82                       1.08282
   82 Stretch                 74    75                       1.08289
   83 Stretch                 75    78                       1.38729
   84 Stretch                 76    77                       1.39224
   85 Stretch                 76    79                       1.08266
   86 Stretch                 77    78                       1.38755
   87 Stretch                 78    80                       1.08329
   88 Stretch                 83    84                       1.40514
   89 Stretch                 83    85                       1.40865
   90 Stretch                 84    86                       1.38899
   91 Stretch                 84    87                       1.08043
   92 Stretch                 85    88                       1.37976
   93 Stretch                 85    89                       1.08509
   94 Stretch                 86    90                       1.38544
   95 Stretch                 86    91                       1.08373
   96 Stretch                 88    90                       1.39272
   97 Stretch                 88    92                       1.08470
   98 Stretch                 90    93                       1.08195
   99 Stretch                 94    95                       1.09853
  100 Stretch                 94    96                       1.09681
  101 Stretch                 94    97                       1.08858
  102 Bend                     1     3     4               102.51173
  103 Bend                     1     3    71                93.21681
  104 Bend                     1    77    76               119.28483
  105 Bend                     1    77    78               120.78582
  106 Bend                     2     1     3               119.97969
  107 Bend                     2     1    77               120.37379
  108 Bend                     3     1    77               119.42770
  109 Bend                     3     4     5               116.50622
  110 Bend                     3     4     6               135.46875
  111 Bend                     3    71    83               121.92398
  112 Bend                     3    71    94               118.70900
  113 Bend                     4     3    71               163.44365
  114 Bend                     4     5     7               114.18549
  115 Bend                     4     5     8               123.38567
  116 Bend                     4     6     9               113.59318
  117 Bend                     4     6    10               125.98237
  118 Bend                     5     4     6               107.37650
  119 Bend                     5     7     9               101.82712
  120 Bend                     5     7    11               110.41837
  121 Bend                     5     7    12               110.72633
  122 Bend                     5     8    13               119.00060
  123 Bend                     5     8    14               118.81815
  124 Bend                     6     9     7               102.67945
  125 Bend                     6     9    15               109.86179
  126 Bend                     6     9    16               110.47847
  127 Bend                     6    10    17               118.19485
  128 Bend                     6    10    18               119.27457
  129 Bend                     7     5     8               122.40085
  130 Bend                     7     9    15               112.63055
  131 Bend                     7     9    16               112.90297
  132 Bend                     8    13    19               117.77084
  133 Bend                     8    13    20               122.10855
  134 Bend                     8    14    21               117.94278
  135 Bend                     8    14    22               121.95490
  136 Bend                     9     6    10               120.38607
  137 Bend                     9     7    11               112.85842
  138 Bend                     9     7    12               112.66469
  139 Bend                    10    17    23               117.76214
  140 Bend                    10    17    24               122.07305
  141 Bend                    10    18    25               117.69187
  142 Bend                    10    18    26               121.97834
  143 Bend                    11     7    12               108.26258
  144 Bend                    13     8    14               122.18018
  145 Bend                    13    19    27               120.97170
  146 Bend                    13    19    28               119.50201
  147 Bend                    13    20    29               109.80815
  148 Bend                    13    20    30               112.52437
  149 Bend                    13    20    31               107.98400
  150 Bend                    14    21    27               120.82835
  151 Bend                    14    21    32               119.59615
  152 Bend                    14    22    33               111.79940
  153 Bend                    14    22    34               110.88774
  154 Bend                    14    22    35               107.88903
  155 Bend                    15     9    16               108.20410
  156 Bend                    17    10    18               122.52056
  157 Bend                    17    23    36               120.75988
  158 Bend                    17    23    37               119.59483
  159 Bend                    17    24    38               110.11631
  160 Bend                    17    24    39               112.89733
  161 Bend                    17    24    40               107.94529
  162 Bend                    18    25    36               120.92725
  163 Bend                    18    25    41               119.54512
  164 Bend                    18    26    42               112.43576
  165 Bend                    18    26    43               110.40745
  166 Bend                    18    26    44               107.80995
  167 Bend                    19    13    20               120.07668
  168 Bend                    19    27    21               120.28355
  169 Bend                    19    27    45               119.84405
  170 Bend                    20    29    46               111.66840
  171 Bend                    20    29    47               110.48934
  172 Bend                    20    29    48               110.57381
  173 Bend                    20    30    49               111.01694
  174 Bend                    20    30    50               109.87703
  175 Bend                    20    30    51               111.39237
  176 Bend                    21    14    22               120.10004
  177 Bend                    21    27    45               119.86682
  178 Bend                    22    33    52               111.43926
  179 Bend                    22    33    53               111.26586
  180 Bend                    22    33    54               110.18060
  181 Bend                    22    34    55               111.91866
  182 Bend                    22    34    56               110.64025
  183 Bend                    22    34    57               110.40358
  184 Bend                    23    17    24               120.11330
  185 Bend                    23    36    25               120.32281
  186 Bend                    23    36    58               119.83776
  187 Bend                    24    38    59               112.01563
  188 Bend                    24    38    60               110.34312
  189 Bend                    24    38    61               110.65814
  190 Bend                    24    39    62               111.55050
  191 Bend                    24    39    63               109.93245
  192 Bend                    24    39    64               111.27113
  193 Bend                    25    18    26               120.32614
  194 Bend                    25    36    58               119.83942
  195 Bend                    26    42    65               110.59299
  196 Bend                    26    42    66               111.31717
  197 Bend                    26    42    67               109.92191
  198 Bend                    26    43    68               111.98713
  199 Bend                    26    43    69               110.59785
  200 Bend                    26    43    70               110.33334
  201 Bend                    27    19    28               119.52626
  202 Bend                    27    21    32               119.55522
  203 Bend                    29    20    30               111.03061
  204 Bend                    29    20    31               107.88514
  205 Bend                    30    20    31               107.42579
  206 Bend                    33    22    34               110.35130
  207 Bend                    33    22    35               107.24566
  208 Bend                    34    22    35               108.51226
  209 Bend                    36    23    37               119.64527
  210 Bend                    36    25    41               119.51700
  211 Bend                    38    24    39               110.22209
  212 Bend                    38    24    40               108.29972
  213 Bend                    39    24    40               107.19064
  214 Bend                    42    26    43               110.57623
  215 Bend                    42    26    44               107.19751
  216 Bend                    43    26    44               108.23440
  217 Bend                    46    29    47               107.57288
  218 Bend                    46    29    48               108.37125
  219 Bend                    47    29    48               108.03497
  220 Bend                    49    30    50               108.74776
  221 Bend                    49    30    51               108.26987
  222 Bend                    50    30    51               107.42625
  223 Bend                    52    33    53               107.89189
  224 Bend                    52    33    54               108.32450
  225 Bend                    53    33    54               107.60013
  226 Bend                    55    34    56               108.39607
  227 Bend                    55    34    57               107.38888
  228 Bend                    56    34    57               107.94753
  229 Bend                    59    38    60               107.28421
  230 Bend                    59    38    61               108.46068
  231 Bend                    60    38    61               107.92781
  232 Bend                    62    39    63               108.36917
  233 Bend                    62    39    64               108.09592
  234 Bend                    63    39    64               107.48374
  235 Bend                    65    42    66               108.36793
  236 Bend                    65    42    67               109.25750
  237 Bend                    66    42    67               107.29758
  238 Bend                    68    43    69               108.34658
  239 Bend                    68    43    70               107.44171
  240 Bend                    69    43    70               107.99084
  241 Bend                    71    83    84               123.91269
  242 Bend                    71    83    85               119.24885
  243 Bend                    71    94    95               113.14888
  244 Bend                    71    94    96               111.10413
  245 Bend                    71    94    97               109.36805
  246 Bend                    72    73    76               119.98728
  247 Bend                    72    73    82               119.92601
  248 Bend                    72    75    74               120.20572
  249 Bend                    72    75    78               119.72607
  250 Bend                    73    72    75               120.17918
  251 Bend                    73    72    81               119.87889
  252 Bend                    73    76    77               119.91959
  253 Bend                    73    76    79               121.62743
  254 Bend                    74    75    78               120.06659
  255 Bend                    75    72    81               119.94013
  256 Bend                    75    78    77               120.25287
  257 Bend                    75    78    80               120.78418
  258 Bend                    76    73    82               120.08649
  259 Bend                    76    77    78               119.92917
  260 Bend                    77    76    79               118.45278
  261 Bend                    77    78    80               118.95355
  262 Bend                    83    71    94               115.92981
  263 Bend                    83    84    86               120.90447
  264 Bend                    83    84    87               120.23892
  265 Bend                    83    85    88               121.82752
  266 Bend                    83    85    89               118.36204
  267 Bend                    84    83    85               116.81998
  268 Bend                    84    86    90               121.41467
  269 Bend                    84    86    91               118.83104
  270 Bend                    85    88    90               120.66314
  271 Bend                    85    88    92               119.23575
  272 Bend                    86    84    87               118.85555
  273 Bend                    86    90    88               118.36984
  274 Bend                    86    90    93               120.77383
  275 Bend                    88    85    89               119.78407
  276 Bend                    88    90    93               120.85469
  277 Bend                    90    86    91               119.75413
  278 Bend                    90    88    92               120.09288
  279 Bend                    95    94    96               107.69448
  280 Bend                    95    94    97               107.05702
  281 Bend                    96    94    97               108.27917
  282 Torsion                  1     3     4     5        -161.80749
  283 Torsion                  1     3     4     6          28.82894
  284 Torsion                  1     3    71    83         101.75178
  285 Torsion                  1     3    71    94         -56.46972
  286 Torsion                  1    77    76    73         179.11063
  287 Torsion                  1    77    76    79          -0.73237
  288 Torsion                  1    77    78    75        -179.11315
  289 Torsion                  1    77    78    80           1.99334
  290 Torsion                  2     1     3     4         -90.11099
  291 Torsion                  2     1     3    71          84.68552
  292 Torsion                  2     1    77    76           8.04741
  293 Torsion                  2     1    77    78        -172.10566
  294 Torsion                  3     1    77    76        -177.32794
  295 Torsion                  3     1    77    78           2.51899
  296 Torsion                  3     4     5     7        -172.29699
  297 Torsion                  3     4     5     8           9.58840
  298 Torsion                  3     4     6     9         166.20447
  299 Torsion                  3     4     6    10         -11.53384
  300 Torsion                  3    71    83    84        -153.18950
  301 Torsion                  3    71    83    85          28.42630
  302 Torsion                  3    71    94    95          95.63171
  303 Torsion                  3    71    94    96        -143.08085
  304 Torsion                  3    71    94    97         -23.60629
  305 Torsion                  4     3     1    77          95.24284
  306 Torsion                  4     3    71    83         -96.35027
  307 Torsion                  4     3    71    94         105.42823
  308 Torsion                  4     5     7     9           3.57341
  309 Torsion                  4     5     7    11         123.66886
  310 Torsion                  4     5     7    12        -116.43819
  311 Torsion                  4     5     8    13         -83.16394
  312 Torsion                  4     5     8    14          97.20281
  313 Torsion                  4     6     9     7           5.86265
  314 Torsion                  4     6     9    15        -114.17863
  315 Torsion                  4     6     9    16         126.51518
  316 Torsion                  4     6    10    17         -98.31616
  317 Torsion                  4     6    10    18          82.80593
  318 Torsion                  5     4     3    71          36.72047
  319 Torsion                  5     4     6     9          -3.82897
  320 Torsion                  5     4     6    10         178.43271
  321 Torsion                  5     7     9     6          -5.18832
  322 Torsion                  5     7     9    15         112.91654
  323 Torsion                  5     7     9    16        -124.15758
  324 Torsion                  5     8    13    19         179.36773
  325 Torsion                  5     8    13    20          -3.04316
  326 Torsion                  5     8    14    21         179.29779
  327 Torsion                  5     8    14    22          -1.25155
  328 Torsion                  6     4     3    71        -132.64310
  329 Torsion                  6     4     5     7          -0.09221
  330 Torsion                  6     4     5     8        -178.20682
  331 Torsion                  6     9     7    11        -123.55381
  332 Torsion                  6     9     7    12         113.45038
  333 Torsion                  6    10    17    23         179.74330
  334 Torsion                  6    10    17    24          -2.86627
  335 Torsion                  6    10    18    25         179.84327
  336 Torsion                  6    10    18    26           0.53704
  337 Torsion                  7     5     8    13          98.87314
  338 Torsion                  7     5     8    14         -80.76011
  339 Torsion                  7     9     6    10        -176.25886
  340 Torsion                  8     5     7     9        -178.29113
  341 Torsion                  8     5     7    11         -58.19568
  342 Torsion                  8     5     7    12          61.69727
  343 Torsion                  8    13    19    27           1.40018
  344 Torsion                  8    13    19    28        -178.53811
  345 Torsion                  8    13    20    29        -104.55316
  346 Torsion                  8    13    20    30         131.23131
  347 Torsion                  8    13    20    31          12.84106
  348 Torsion                  8    14    21    27           1.31275
  349 Torsion                  8    14    21    32         179.66765
  350 Torsion                  8    14    22    33        -127.87092
  351 Torsion                  8    14    22    34         108.51894
  352 Torsion                  8    14    22    35         -10.18509
  353 Torsion                  9     6    10    17          84.08659
  354 Torsion                  9     6    10    18         -94.79132
  355 Torsion                 10     6     9    15          63.69986
  356 Torsion                 10     6     9    16         -55.60633
  357 Torsion                 10    17    23    36           0.69806
  358 Torsion                 10    17    23    37        -179.34414
  359 Torsion                 10    17    24    38        -107.31197
  360 Torsion                 10    17    24    39         129.02534
  361 Torsion                 10    17    24    40          10.72934
  362 Torsion                 10    18    25    36           0.11477
  363 Torsion                 10    18    25    41         178.92332
  364 Torsion                 10    18    26    42        -133.08430
  365 Torsion                 10    18    26    43         102.90730
  366 Torsion                 10    18    26    44         -15.13908
  367 Torsion                 11     7     9    15          -5.44895
  368 Torsion                 11     7     9    16         117.47694
  369 Torsion                 12     7     9    15        -128.44476
  370 Torsion                 12     7     9    16          -5.51887
  371 Torsion                 13     8    14    21          -0.32323
  372 Torsion                 13     8    14    22         179.12743
  373 Torsion                 13    19    27    21          -0.45617
  374 Torsion                 13    19    27    45        -179.59568
  375 Torsion                 13    20    29    46          56.46607
  376 Torsion                 13    20    29    47         -63.22214
  377 Torsion                 13    20    29    48         177.22139
  378 Torsion                 13    20    30    49         -53.86970
  379 Torsion                 13    20    30    50        -174.20270
  380 Torsion                 13    20    30    51          66.87363
  381 Torsion                 14     8    13    19          -1.01193
  382 Torsion                 14     8    13    20         176.57718
  383 Torsion                 14    21    27    19          -0.94888
  384 Torsion                 14    21    27    45         178.19043
  385 Torsion                 14    22    33    52          51.60407
  386 Torsion                 14    22    33    53         -68.86077
  387 Torsion                 14    22    33    54         171.88177
  388 Torsion                 14    22    34    55         -56.13616
  389 Torsion                 14    22    34    56        -177.13842
  390 Torsion                 14    22    34    57          63.42659
  391 Torsion                 17    10    18    25           1.01613
  392 Torsion                 17    10    18    26        -178.29010
  393 Torsion                 17    23    36    25           0.37830
  394 Torsion                 17    23    36    58        -179.58412
  395 Torsion                 17    24    38    59          54.56622
  396 Torsion                 17    24    38    60         -64.88725
  397 Torsion                 17    24    38    61         175.72970
  398 Torsion                 17    24    39    62         -57.32631
  399 Torsion                 17    24    39    63        -177.56677
  400 Torsion                 17    24    39    64          63.47853
  401 Torsion                 18    10    17    23          -1.41751
  402 Torsion                 18    10    17    24         175.97293
  403 Torsion                 18    25    36    23          -0.80065
  404 Torsion                 18    25    36    58         179.16178
  405 Torsion                 18    26    42    65          50.96687
  406 Torsion                 18    26    42    66         -69.56204
  407 Torsion                 18    26    42    67         171.69266
  408 Torsion                 18    26    43    68         -56.68647
  409 Torsion                 18    26    43    69        -177.64273
  410 Torsion                 18    26    43    70          62.94050
  411 Torsion                 19    13    20    29          72.98169
  412 Torsion                 19    13    20    30         -51.23383
  413 Torsion                 19    13    20    31        -169.62409
  414 Torsion                 19    27    21    32        -179.30445
  415 Torsion                 20    13    19    27        -176.23998
  416 Torsion                 20    13    19    28           3.82173
  417 Torsion                 21    14    22    33          51.56814
  418 Torsion                 21    14    22    34         -72.04200
  419 Torsion                 21    14    22    35         169.25397
  420 Torsion                 21    27    19    28         179.48211
  421 Torsion                 22    14    21    27        -178.14850
  422 Torsion                 22    14    21    32           0.20640
  423 Torsion                 23    17    24    38          70.01853
  424 Torsion                 23    17    24    39         -53.64416
  425 Torsion                 23    17    24    40        -171.94016
  426 Torsion                 23    36    25    41        -179.60953
  427 Torsion                 24    17    23    36        -176.74570
  428 Torsion                 24    17    23    37           3.21211
  429 Torsion                 25    18    26    42          47.62739
  430 Torsion                 25    18    26    43         -76.38101
  431 Torsion                 25    18    26    44         165.57261
  432 Torsion                 25    36    23    37        -179.57948
  433 Torsion                 26    18    25    36         179.43299
  434 Torsion                 26    18    25    41          -1.75846
  435 Torsion                 28    19    27    45           0.34260
  436 Torsion                 29    20    30    49        -177.40735
  437 Torsion                 29    20    30    50          62.25965
  438 Torsion                 29    20    30    51         -56.66402
  439 Torsion                 30    20    29    46        -178.45482
  440 Torsion                 30    20    29    47          61.85697
  441 Torsion                 30    20    29    48         -57.69950
  442 Torsion                 31    20    29    46         -60.98981
  443 Torsion                 31    20    29    47         179.32198
  444 Torsion                 31    20    29    48          59.76551
  445 Torsion                 31    20    30    49          64.84803
  446 Torsion                 31    20    30    50         -55.48497
  447 Torsion                 31    20    30    51        -174.40864
  448 Torsion                 32    21    27    45          -0.16514
  449 Torsion                 33    22    34    55         179.42704
  450 Torsion                 33    22    34    56          58.42477
  451 Torsion                 33    22    34    57         -61.01021
  452 Torsion                 34    22    33    52         175.51617
  453 Torsion                 34    22    33    53          55.05133
  454 Torsion                 34    22    33    54         -64.20613
  455 Torsion                 35    22    33    52         -66.46681
  456 Torsion                 35    22    33    53         173.06835
  457 Torsion                 35    22    33    54          53.81089
  458 Torsion                 35    22    34    55          62.19070
  459 Torsion                 35    22    34    56         -58.81156
  460 Torsion                 35    22    34    57        -178.24655
  461 Torsion                 37    23    36    58           0.45810
  462 Torsion                 38    24    39    62         179.06941
  463 Torsion                 38    24    39    63          58.82895
  464 Torsion                 38    24    39    64         -60.12575
  465 Torsion                 39    24    38    59         179.77090
  466 Torsion                 39    24    38    60          60.31742
  467 Torsion                 39    24    38    61         -59.06562
  468 Torsion                 40    24    38    59         -63.25630
  469 Torsion                 40    24    38    60         177.29022
  470 Torsion                 40    24    38    61          57.90718
  471 Torsion                 40    24    39    62          61.40944
  472 Torsion                 40    24    39    63         -58.83101
  473 Torsion                 40    24    39    64        -177.78572
  474 Torsion                 41    25    36    58           0.35289
  475 Torsion                 42    26    43    68         178.24059
  476 Torsion                 42    26    43    69          57.28432
  477 Torsion                 42    26    43    70         -62.13245
  478 Torsion                 43    26    42    65         174.88161
  479 Torsion                 43    26    42    66          54.35270
  480 Torsion                 43    26    42    67         -64.39260
  481 Torsion                 44    26    42    65         -67.33969
  482 Torsion                 44    26    42    66         172.13140
  483 Torsion                 44    26    42    67          53.38610
  484 Torsion                 44    26    43    68          61.09927
  485 Torsion                 44    26    43    69         -59.85699
  486 Torsion                 44    26    43    70        -179.27376
  487 Torsion                 71     3     1    77         -89.96065
  488 Torsion                 71    83    84    86        -178.49918
  489 Torsion                 71    83    84    87           1.87871
  490 Torsion                 71    83    85    88         178.71426
  491 Torsion                 71    83    85    89           0.58732
  492 Torsion                 72    73    76    77           0.13459
  493 Torsion                 72    73    76    79         179.97248
  494 Torsion                 72    75    78    77          -0.12266
  495 Torsion                 72    75    78    80         178.75036
  496 Torsion                 73    72    75    74         179.05435
  497 Torsion                 73    72    75    78          -0.48306
  498 Torsion                 73    76    77    78          -0.73763
  499 Torsion                 74    75    72    81          -0.45645
  500 Torsion                 74    75    78    77        -179.66072
  501 Torsion                 74    75    78    80          -0.78770
  502 Torsion                 75    72    73    76           0.47704
  503 Torsion                 75    72    73    82        -179.35097
  504 Torsion                 75    78    77    76           0.73280
  505 Torsion                 76    73    72    81         179.98814
  506 Torsion                 76    77    78    80        -178.16071
  507 Torsion                 77    76    73    82         179.96231
  508 Torsion                 78    75    72    81        -179.99386
  509 Torsion                 78    77    76    79         179.41937
  510 Torsion                 79    76    73    82          -0.19980
  511 Torsion                 81    72    73    82           0.16014
  512 Torsion                 83    71    94    95         -63.87164
  513 Torsion                 83    71    94    96          57.41580
  514 Torsion                 83    71    94    97         176.89036
  515 Torsion                 83    84    86    90          -0.04075
  516 Torsion                 83    84    86    91        -179.89493
  517 Torsion                 83    85    88    90          -0.23620
  518 Torsion                 83    85    88    92        -179.19321
  519 Torsion                 84    83    71    94           5.59750
  520 Torsion                 84    83    85    88           0.21681
  521 Torsion                 84    83    85    89        -177.91014
  522 Torsion                 84    86    90    88           0.02873
  523 Torsion                 84    86    90    93         179.56725
  524 Torsion                 85    83    71    94        -172.78670
  525 Torsion                 85    83    84    86          -0.07890
  526 Torsion                 85    83    84    87        -179.70101
  527 Torsion                 85    88    90    86           0.10755
  528 Torsion                 85    88    90    93        -179.43058
  529 Torsion                 86    90    88    92         179.05563
  530 Torsion                 87    84    86    90         179.58650
  531 Torsion                 87    84    86    91          -0.26768
  532 Torsion                 88    90    86    91         179.88159
  533 Torsion                 89    85    88    90         177.86471
  534 Torsion                 89    85    88    92          -1.09230
  535 Torsion                 91    86    90    93          -0.57990
  536 Torsion                 92    88    90    93          -0.48249


            XYZ format geometry
            -------------------
    97
 geometry
 C                     1.41807676     0.84216715    -1.13342234
 O                     1.33030883     1.62604278    -2.04811820
 Ni                    0.08594794    -0.38853867    -0.84899223
 C                    -1.07967003     0.53263280     0.32724554
 N                    -1.95264299    -0.22001972     1.01759263
 N                    -1.39432591     1.80992387     0.54674909
 C                    -2.94231964     0.54978351     1.77220965
 C                    -1.90337385    -1.64803417     1.05371947
 C                    -2.60071121     1.98565622     1.36411096
 C                    -0.69999712     2.94778801     0.02751258
 H                    -3.95300208     0.25636002     1.48422053
 H                    -2.82892709     0.37893174     2.84440955
 C                    -2.49005844    -2.37400642     0.01036901
 C                    -1.27525068    -2.27492485     2.13794687
 H                    -3.38809751     2.45169106     0.76801395
 H                    -2.39255290     2.63086184     2.21720929
 C                     0.22697149     3.58994364     0.85421546
 C                    -0.98503476     3.38993867    -1.26617566
 C                    -2.41546901    -3.76253117     0.06458662
 C                    -3.23587359    -1.69627880    -1.12393416
 C                    -1.25088503    -3.66375696     2.16206718
 C                    -0.62425935    -1.48323539     3.25584370
 C                     0.90043039     4.69124647     0.33872071
 C                     0.46396400     3.15546705     2.28937641
 C                    -0.29409432     4.49956686    -1.73600082
 C                    -2.02030557     2.70690560    -2.13838481
 C                    -1.80730934    -4.40165103     1.12991868
 H                    -2.83876295    -4.35084956    -0.73929420
 C                    -4.74546397    -1.87501690    -0.93265529
 C                    -2.79367681    -2.19891710    -2.49841802
 H                    -3.01650197    -0.62714411    -1.08049251
 H                    -0.76760568    -4.17607876     2.98491977
 C                     0.81674697    -1.93277427     3.50594577
 C                    -1.44469755    -1.58309208     4.54511965
 H                    -0.58793246    -0.43549738     2.94803171
 C                     0.64515831     5.13971999    -0.94606059
 H                     1.63269475     5.20453540     0.94969631
 C                    -0.13904472     4.18025579     3.25687784
 C                     1.94250113     2.93490760     2.60747287
 H                    -0.04499081     2.20002576     2.44040792
 H                    -0.47876073     4.85727734    -2.74080194
 C                    -1.51015000     2.44911561    -3.55639268
 C                    -3.31458884     3.52609717    -2.17238467
 H                    -2.24285477     1.73459496    -1.69352482
 H                    -1.75373717    -5.48254300     1.15025707
 H                    -5.07708978    -1.49429407     0.03567733
 H                    -5.01436744    -2.93245503    -0.98086525
 H                    -5.29603801    -1.35032503    -1.71544273
 H                    -1.71218268    -2.11371292    -2.61698716
 H                    -3.27969906    -1.61387850    -3.28160243
 H                    -3.07332054    -3.24348468    -2.64937261
 H                     1.39651417    -1.94373696     2.58306671
 H                     0.84972790    -2.93623090     3.93469522
 H                     1.30524181    -1.25679005     4.21008330
 H                    -2.47620309    -1.25839831     4.39779284
 H                    -1.00014964    -0.97149882     5.33243148
 H                    -1.47496074    -2.61612240     4.89810307
 H                     1.18326679     5.99492532    -1.33496005
 H                    -1.19574170     4.36322849     3.05284373
 H                     0.37911436     5.13735200     3.16755402
 H                    -0.04023782     3.83968005     4.28948861
 H                     2.38892926     2.19763943     1.94249288
 H                     2.05374842     2.58329461     3.63539082
 H                     2.51024824     3.86283916     2.51496300
 H                    -0.54494062     1.94582234    -3.53056510
 H                    -1.39717871     3.38177365    -4.11338704
 H                    -2.22488320     1.82958159    -4.10207641
 H                    -3.71625651     3.69753892    -1.17171702
 H                    -4.07632410     3.01639283    -2.76580721
 H                    -3.13317164     4.50386200    -2.62431375
 N                     0.78474588    -1.57937606    -2.06296059
 C                     4.96694896     0.72792560     1.25294549
 C                     4.79804058     1.72523633     0.29807205
 H                     4.13063470    -1.03132328     2.15742954
 C                     3.99263656    -0.24590979     1.42480677
 C                     3.65079727     1.75399447    -0.47741157
 C                     2.66673684     0.78564821    -0.29779332
 C                     2.84433570    -0.21492298     0.64698352
 H                     3.49172561     2.51808016    -1.22775696
 H                     2.08232470    -0.97759625     0.75270097
 H                     5.86465755     0.70700098     1.85813429
 H                     5.56539904     2.47667140     0.16022576
 C                     1.50799684    -2.68726438    -1.66606831
 C                     2.48855759    -3.30830505    -2.45804341
 C                     1.24357934    -3.26814984    -0.41030106
 C                     3.15734517    -4.43966868    -2.00855229
 H                     2.73869375    -2.90609540    -3.42911925
 C                     1.91553723    -4.39062594     0.02818349
 H                     0.46679320    -2.82934838     0.20733050
 C                     2.88478795    -4.99480476    -0.76880016
 H                     3.90871799    -4.89048429    -2.64626822
 H                     1.66903475    -4.81080512     0.99734140
 H                     3.40710496    -5.88040884    -0.43189055
 C                     0.99860067    -1.13793528    -3.42834982
 H                     2.02610281    -0.79783938    -3.61633888
 H                     0.77730251    -1.94071601    -4.14218962
 H                     0.33994686    -0.29840489    -3.64368570

 ==============================================================================
                                internuclear distances
 ------------------------------------------------------------------------------
       center one      |      center two      | atomic units |  angstroms
 ------------------------------------------------------------------------------
    2 O                |   1 C                |     2.28245  |     1.20782
    3 Ni               |   1 C                |     3.46913  |     1.83578
    4 C                |   3 Ni               |     3.58090  |     1.89493
    5 N                |   4 C                |     2.53896  |     1.34356
    6 N                |   4 C                |     2.52026  |     1.33367
    7 C                |   5 N                |     2.76540  |     1.46339
    8 C                |   5 N                |     2.70102  |     1.42932
    9 C                |   6 N                |     2.77367  |     1.46776
    9 C                |   7 C                |     2.89379  |     1.53133
   10 C                |   6 N                |     2.70332  |     1.43054
   11 H                |   7 C                |     2.06189  |     1.09111
   12 H                |   7 C                |     2.06289  |     1.09163
   13 C                |   8 C                |     2.64549  |     1.39993
   14 C                |   8 C                |     2.64769  |     1.40110
   15 H                |   9 C                |     2.06361  |     1.09202
   16 H                |   9 C                |     2.05919  |     1.08968
   17 C                |  10 C                |     2.64229  |     1.39824
   18 C                |  10 C                |     2.63911  |     1.39656
   19 C                |  13 C                |     2.62971  |     1.39158
   20 C                |  13 C                |     2.86728  |     1.51730
   21 C                |  14 C                |     2.62531  |     1.38926
   22 C                |  14 C                |     2.86607  |     1.51666
   23 C                |  17 C                |     2.62675  |     1.39002
   24 C                |  17 C                |     2.86879  |     1.51810
   25 C                |  18 C                |     2.62489  |     1.38903
   26 C                |  18 C                |     2.86533  |     1.51627
   27 C                |  19 C                |     2.61388  |     1.38321
   27 C                |  21 C                |     2.61809  |     1.38543
   28 H                |  19 C                |     2.04538  |     1.08237
   29 C                |  20 C                |     2.89529  |     1.53212
   30 C                |  20 C                |     2.88911  |     1.52885
   31 H                |  20 C                |     2.06410  |     1.09227
   32 H                |  21 C                |     2.04677  |     1.08311
   33 C                |  22 C                |     2.89143  |     1.53008
   34 C                |  22 C                |     2.89401  |     1.53144
   35 H                |  22 C                |     2.06476  |     1.09262
   36 C                |  23 C                |     2.61640  |     1.38454
   36 C                |  25 C                |     2.61575  |     1.38420
   37 H                |  23 C                |     2.04664  |     1.08304
   38 C                |  24 C                |     2.89682  |     1.53293
   39 C                |  24 C                |     2.88819  |     1.52837
   40 H                |  24 C                |     2.06553  |     1.09303
   41 H                |  25 C                |     2.04552  |     1.08244
   42 C                |  26 C                |     2.88916  |     1.52888
   43 C                |  26 C                |     2.89529  |     1.53212
   44 H                |  26 C                |     2.06389  |     1.09216
   45 H                |  27 C                |     2.04546  |     1.08241
   46 H                |  29 C                |     2.06369  |     1.09206
   47 H                |  29 C                |     2.06388  |     1.09216
   48 H                |  29 C                |     2.06248  |     1.09142
   49 H                |  30 C                |     2.06227  |     1.09131
   50 H                |  30 C                |     2.06306  |     1.09173
   51 H                |  30 C                |     2.06327  |     1.09184
   52 H                |  33 C                |     2.05968  |     1.08993
   53 H                |  33 C                |     2.06304  |     1.09171
   54 H                |  33 C                |     2.06265  |     1.09151
   55 H                |  34 C                |     2.06243  |     1.09139
   56 H                |  34 C                |     2.06277  |     1.09157
   57 H                |  34 C                |     2.06375  |     1.09209
   58 H                |  36 C                |     2.04595  |     1.08267
   59 H                |  38 C                |     2.06293  |     1.09166
   60 H                |  38 C                |     2.06361  |     1.09202
   61 H                |  38 C                |     2.06321  |     1.09181
   62 H                |  39 C                |     2.05717  |     1.08860
   63 H                |  39 C                |     2.06372  |     1.09207
   64 H                |  39 C                |     2.06314  |     1.09177
   65 H                |  42 C                |     2.05763  |     1.08885
   66 H                |  42 C                |     2.06392  |     1.09218
   67 H                |  42 C                |     2.06356  |     1.09199
   68 H                |  43 C                |     2.06324  |     1.09182
   69 H                |  43 C                |     2.06334  |     1.09187
   70 H                |  43 C                |     2.06420  |     1.09233
   71 N                |   3 Ni               |     3.47429  |     1.83851
   73 C                |  72 C                |     2.62865  |     1.39102
   75 C                |  72 C                |     2.62337  |     1.38823
   75 C                |  74 H                |     2.04637  |     1.08289
   76 C                |  73 C                |     2.61737  |     1.38505
   77 C                |   1 C                |     2.84127  |     1.50354
   77 C                |  76 C                |     2.63095  |     1.39224
   78 C                |  75 C                |     2.62159  |     1.38729
   78 C                |  77 C                |     2.62208  |     1.38755
   79 H                |  76 C                |     2.04593  |     1.08266
   80 H                |  78 C                |     2.04711  |     1.08329
   81 H                |  72 C                |     2.04630  |     1.08285
   82 H                |  73 C                |     2.04623  |     1.08282
   83 C                |  71 N                |     2.61031  |     1.38132
   84 C                |  83 C                |     2.65533  |     1.40514
   85 C                |  83 C                |     2.66196  |     1.40865
   86 C                |  84 C                |     2.62482  |     1.38899
   87 H                |  84 C                |     2.04172  |     1.08043
   88 C                |  85 C                |     2.60738  |     1.37976
   89 H                |  85 C                |     2.05052  |     1.08509
   90 C                |  86 C                |     2.61811  |     1.38544
   90 C                |  88 C                |     2.63185  |     1.39272
   91 H                |  86 C                |     2.04796  |     1.08373
   92 H                |  88 C                |     2.04979  |     1.08470
   93 H                |  90 C                |     2.04459  |     1.08195
   94 C                |  71 N                |     2.74166  |     1.45082
   95 H                |  94 C                |     2.07592  |     1.09853
   96 H                |  94 C                |     2.07267  |     1.09681
   97 H                |  94 C                |     2.05712  |     1.08858
 ------------------------------------------------------------------------------
                         number of included internuclear distances:        101
 ==============================================================================



 ==============================================================================
                                 internuclear angles
 ------------------------------------------------------------------------------
        center 1       |       center 2       |       center 3       |  degrees
 ------------------------------------------------------------------------------
    2 O                |   1 C                |   3 Ni               |   119.98
    2 O                |   1 C                |  77 C                |   120.37
    3 Ni               |   1 C                |  77 C                |   119.43
    1 C                |   3 Ni               |   4 C                |   102.51
    1 C                |   3 Ni               |  71 N                |    93.22
    4 C                |   3 Ni               |  71 N                |   163.44
    3 Ni               |   4 C                |   5 N                |   116.51
    3 Ni               |   4 C                |   6 N                |   135.47
    5 N                |   4 C                |   6 N                |   107.38
    4 C                |   5 N                |   7 C                |   114.19
    4 C                |   5 N                |   8 C                |   123.39
    7 C                |   5 N                |   8 C                |   122.40
    4 C                |   6 N                |   9 C                |   113.59
    4 C                |   6 N                |  10 C                |   125.98
    9 C                |   6 N                |  10 C                |   120.39
    5 N                |   7 C                |   9 C                |   101.83
    5 N                |   7 C                |  11 H                |   110.42
    5 N                |   7 C                |  12 H                |   110.73
    9 C                |   7 C                |  11 H                |   112.86
    9 C                |   7 C                |  12 H                |   112.66
   11 H                |   7 C                |  12 H                |   108.26
    5 N                |   8 C                |  13 C                |   119.00
    5 N                |   8 C                |  14 C                |   118.82
   13 C                |   8 C                |  14 C                |   122.18
    6 N                |   9 C                |   7 C                |   102.68
    6 N                |   9 C                |  15 H                |   109.86
    6 N                |   9 C                |  16 H                |   110.48
    7 C                |   9 C                |  15 H                |   112.63
    7 C                |   9 C                |  16 H                |   112.90
   15 H                |   9 C                |  16 H                |   108.20
    6 N                |  10 C                |  17 C                |   118.19
    6 N                |  10 C                |  18 C                |   119.27
   17 C                |  10 C                |  18 C                |   122.52
    8 C                |  13 C                |  19 C                |   117.77
    8 C                |  13 C                |  20 C                |   122.11
   19 C                |  13 C                |  20 C                |   120.08
    8 C                |  14 C                |  21 C                |   117.94
    8 C                |  14 C                |  22 C                |   121.95
   21 C                |  14 C                |  22 C                |   120.10
   10 C                |  17 C                |  23 C                |   117.76
   10 C                |  17 C                |  24 C                |   122.07
   23 C                |  17 C                |  24 C                |   120.11
   10 C                |  18 C                |  25 C                |   117.69
   10 C                |  18 C                |  26 C                |   121.98
   25 C                |  18 C                |  26 C                |   120.33
   13 C                |  19 C                |  27 C                |   120.97
   13 C                |  19 C                |  28 H                |   119.50
   27 C                |  19 C                |  28 H                |   119.53
   13 C                |  20 C                |  29 C                |   109.81
   13 C                |  20 C                |  30 C                |   112.52
   13 C                |  20 C                |  31 H                |   107.98
   29 C                |  20 C                |  30 C                |   111.03
   29 C                |  20 C                |  31 H                |   107.89
   30 C                |  20 C                |  31 H                |   107.43
   14 C                |  21 C                |  27 C                |   120.83
   14 C                |  21 C                |  32 H                |   119.60
   27 C                |  21 C                |  32 H                |   119.56
   14 C                |  22 C                |  33 C                |   111.80
   14 C                |  22 C                |  34 C                |   110.89
   14 C                |  22 C                |  35 H                |   107.89
   33 C                |  22 C                |  34 C                |   110.35
   33 C                |  22 C                |  35 H                |   107.25
   34 C                |  22 C                |  35 H                |   108.51
   17 C                |  23 C                |  36 C                |   120.76
   17 C                |  23 C                |  37 H                |   119.59
   36 C                |  23 C                |  37 H                |   119.65
   17 C                |  24 C                |  38 C                |   110.12
   17 C                |  24 C                |  39 C                |   112.90
   17 C                |  24 C                |  40 H                |   107.95
   38 C                |  24 C                |  39 C                |   110.22
   38 C                |  24 C                |  40 H                |   108.30
   39 C                |  24 C                |  40 H                |   107.19
   18 C                |  25 C                |  36 C                |   120.93
   18 C                |  25 C                |  41 H                |   119.55
   36 C                |  25 C                |  41 H                |   119.52
   18 C                |  26 C                |  42 C                |   112.44
   18 C                |  26 C                |  43 C                |   110.41
   18 C                |  26 C                |  44 H                |   107.81
   42 C                |  26 C                |  43 C                |   110.58
   42 C                |  26 C                |  44 H                |   107.20
   43 C                |  26 C                |  44 H                |   108.23
   19 C                |  27 C                |  21 C                |   120.28
   19 C                |  27 C                |  45 H                |   119.84
   21 C                |  27 C                |  45 H                |   119.87
   20 C                |  29 C                |  46 H                |   111.67
   20 C                |  29 C                |  47 H                |   110.49
   20 C                |  29 C                |  48 H                |   110.57
   46 H                |  29 C                |  47 H                |   107.57
   46 H                |  29 C                |  48 H                |   108.37
   47 H                |  29 C                |  48 H                |   108.03
   20 C                |  30 C                |  49 H                |   111.02
   20 C                |  30 C                |  50 H                |   109.88
   20 C                |  30 C                |  51 H                |   111.39
   49 H                |  30 C                |  50 H                |   108.75
   49 H                |  30 C                |  51 H                |   108.27
   50 H                |  30 C                |  51 H                |   107.43
   22 C                |  33 C                |  52 H                |   111.44
   22 C                |  33 C                |  53 H                |   111.27
   22 C                |  33 C                |  54 H                |   110.18
   52 H                |  33 C                |  53 H                |   107.89
   52 H                |  33 C                |  54 H                |   108.32
   53 H                |  33 C                |  54 H                |   107.60
   22 C                |  34 C                |  55 H                |   111.92
   22 C                |  34 C                |  56 H                |   110.64
   22 C                |  34 C                |  57 H                |   110.40
   55 H                |  34 C                |  56 H                |   108.40
   55 H                |  34 C                |  57 H                |   107.39
   56 H                |  34 C                |  57 H                |   107.95
   23 C                |  36 C                |  25 C                |   120.32
   23 C                |  36 C                |  58 H                |   119.84
   25 C                |  36 C                |  58 H                |   119.84
   24 C                |  38 C                |  59 H                |   112.02
   24 C                |  38 C                |  60 H                |   110.34
   24 C                |  38 C                |  61 H                |   110.66
   59 H                |  38 C                |  60 H                |   107.28
   59 H                |  38 C                |  61 H                |   108.46
   60 H                |  38 C                |  61 H                |   107.93
   24 C                |  39 C                |  62 H                |   111.55
   24 C                |  39 C                |  63 H                |   109.93
   24 C                |  39 C                |  64 H                |   111.27
   62 H                |  39 C                |  63 H                |   108.37
   62 H                |  39 C                |  64 H                |   108.10
   63 H                |  39 C                |  64 H                |   107.48
   26 C                |  42 C                |  65 H                |   110.59
   26 C                |  42 C                |  66 H                |   111.32
   26 C                |  42 C                |  67 H                |   109.92
   65 H                |  42 C                |  66 H                |   108.37
   65 H                |  42 C                |  67 H                |   109.26
   66 H                |  42 C                |  67 H                |   107.30
   26 C                |  43 C                |  68 H                |   111.99
   26 C                |  43 C                |  69 H                |   110.60
   26 C                |  43 C                |  70 H                |   110.33
   68 H                |  43 C                |  69 H                |   108.35
   68 H                |  43 C                |  70 H                |   107.44
   69 H                |  43 C                |  70 H                |   107.99
    3 Ni               |  71 N                |  83 C                |   121.92
    3 Ni               |  71 N                |  94 C                |   118.71
   83 C                |  71 N                |  94 C                |   115.93
   73 C                |  72 C                |  75 C                |   120.18
   73 C                |  72 C                |  81 H                |   119.88
   75 C                |  72 C                |  81 H                |   119.94
   72 C                |  73 C                |  76 C                |   119.99
   72 C                |  73 C                |  82 H                |   119.93
   76 C                |  73 C                |  82 H                |   120.09
   72 C                |  75 C                |  74 H                |   120.21
   72 C                |  75 C                |  78 C                |   119.73
   74 H                |  75 C                |  78 C                |   120.07
   73 C                |  76 C                |  77 C                |   119.92
   73 C                |  76 C                |  79 H                |   121.63
   77 C                |  76 C                |  79 H                |   118.45
    1 C                |  77 C                |  76 C                |   119.28
    1 C                |  77 C                |  78 C                |   120.79
   76 C                |  77 C                |  78 C                |   119.93
   75 C                |  78 C                |  77 C                |   120.25
   75 C                |  78 C                |  80 H                |   120.78
   77 C                |  78 C                |  80 H                |   118.95
   71 N                |  83 C                |  84 C                |   123.91
   71 N                |  83 C                |  85 C                |   119.25
   84 C                |  83 C                |  85 C                |   116.82
   83 C                |  84 C                |  86 C                |   120.90
   83 C                |  84 C                |  87 H                |   120.24
   86 C                |  84 C                |  87 H                |   118.86
   83 C                |  85 C                |  88 C                |   121.83
   83 C                |  85 C                |  89 H                |   118.36
   88 C                |  85 C                |  89 H                |   119.78
   84 C                |  86 C                |  90 C                |   121.41
   84 C                |  86 C                |  91 H                |   118.83
   90 C                |  86 C                |  91 H                |   119.75
   85 C                |  88 C                |  90 C                |   120.66
   85 C                |  88 C                |  92 H                |   119.24
   90 C                |  88 C                |  92 H                |   120.09
   86 C                |  90 C                |  88 C                |   118.37
   86 C                |  90 C                |  93 H                |   120.77
   88 C                |  90 C                |  93 H                |   120.85
   71 N                |  94 C                |  95 H                |   113.15
   71 N                |  94 C                |  96 H                |   111.10
   71 N                |  94 C                |  97 H                |   109.37
   95 H                |  94 C                |  96 H                |   107.69
   95 H                |  94 C                |  97 H                |   107.06
   96 H                |  94 C                |  97 H                |   108.28
 ------------------------------------------------------------------------------
                            number of included internuclear angles:        180
 ==============================================================================



                      Basis "ao basis" -> "" (cartesian)
                      -----
  C (Carbon)
  ----------
            Exponent  Coefficients 
       -------------- ---------------------------------------------------------
  1 S  1.23840169E+03  0.005457
  1 S  1.86290050E+02  0.040638
  1 S  4.22511763E+01  0.180256
  1 S  1.16765579E+01  0.463151
  1 S  3.59305065E+00  0.440872

  2 S  4.02451474E-01  1.000000

  3 S  1.30901827E-01  1.000000

  4 P  9.46809706E+00  0.038388
  4 P  2.01035451E+00  0.211170
  4 P  5.47710047E-01  0.513282

  5 P  1.52686138E-01  1.000000

  H (Hydrogen)
  ------------
            Exponent  Coefficients 
       -------------- ---------------------------------------------------------
  1 S  1.30107010E+01  0.019682
  1 S  1.96225720E+00  0.137965
  1 S  4.44537960E-01  0.478319

  2 S  1.21949620E-01  1.000000

  O (Oxygen)
  ----------
            Exponent  Coefficients 
       -------------- ---------------------------------------------------------
  1 S  2.26617678E+03 -0.005343
  1 S  3.40870102E+02 -0.039890
  1 S  7.73631352E+01 -0.178539
  1 S  2.14796449E+01 -0.464277
  1 S  6.65894331E+00 -0.443097

  2 S  8.09759757E-01  1.000000

  3 S  2.55307722E-01  1.000000

  4 P  1.77215043E+01  0.043395
  4 P  3.86355054E+00  0.230941
  4 P  1.04809209E+00  0.513753

  5 P  2.76415444E-01  1.000000

  N (Nitrogen)
  ------------
            Exponent  Coefficients 
       -------------- ---------------------------------------------------------
  1 S  1.71284159E+03 -0.005393
  1 S  2.57648127E+02 -0.040222
  1 S  5.84582459E+01 -0.179311
[...]
  ----- ------------  ---------------      ----- ------------  ---------------
   202     11.643613  23 C  s               220     11.631280  25 C  s         
   157    -11.371409  18 C  s               478    -11.397360  84 C  s         
   113     11.146204  10 C  s               148    -10.697952  17 C  s         
   507     10.488947  88 C  s               291    -10.423710  36 C  s         
   496     10.182586  86 C  s               518     -9.525420  90 C  s         

 Vector  526  Occ=0.000000D+00  E= 1.772471D+00
              MO Center= -2.1D-01, -1.1D+00,  4.6D-03, r^2= 1.6D+01
   Bfn.  Coefficient  Atom+Function         Bfn.  Coefficient  Atom+Function  
  ----- ------------  ---------------      ----- ------------  ---------------
   166     12.310310  19 C  s               184     11.908712  21 C  s         
   100    -11.607347   8 C  py               95     10.781029   8 C  s         
   126    -10.792019  13 C  s               135    -10.818213  14 C  s         
   238    -10.723798  27 C  s               132     -7.606631  13 C  pz        
   478     -7.411613  84 C  s               141      6.473817  14 C  pz        

 Vector  527  Occ=0.000000D+00  E= 1.796920D+00
              MO Center=  6.5D-01, -4.7D-01, -1.2D+00, r^2= 1.2D+01
   Bfn.  Coefficient  Atom+Function         Bfn.  Coefficient  Atom+Function  
  ----- ------------  ---------------      ----- ------------  ---------------
   487      9.711708  85 C  s               507     -7.104579  88 C  s         
   496     -6.579802  86 C  s               157     -5.969133  18 C  s         
   475     -5.938083  83 C  pz              202      5.854858  23 C  s         
   220      5.854384  25 C  s               518      5.802796  90 C  s         
   118      5.491203  10 C  py              113      5.446462  10 C  s         

 Vector  528  Occ=0.000000D+00  E= 1.810028D+00
              MO Center=  3.7D-01, -4.7D-03, -1.1D+00, r^2= 9.5D+00
   Bfn.  Coefficient  Atom+Function         Bfn.  Coefficient  Atom+Function  
  ----- ------------  ---------------      ----- ------------  ---------------
    22     18.345533   3 Ni s               469      5.250044  83 C  s         
    23     -4.893271   3 Ni s               113      4.558313  10 C  s         
   220      4.544765  25 C  s                56     -4.280853   3 Ni dzz       
   229     -4.168929  26 C  s                51     -4.015418   3 Ni dxx       
   118      4.021791  10 C  py              157     -3.792838  18 C  s         

 Vector  529  Occ=0.000000D+00  E= 1.921970D+00
              MO Center= -1.2D+00,  7.0D-01,  4.6D-01, r^2= 6.2D+00
   Bfn.  Coefficient  Atom+Function         Bfn.  Coefficient  Atom+Function  
  ----- ------------  ---------------      ----- ------------  ---------------
    22      6.357565   3 Ni s               100     -5.531887   8 C  py        
    73     -4.433815   5 N  py               86      4.295649   7 C  s         
   104     -4.277760   9 C  s                68      3.694800   5 N  s         
   175     -3.613351  20 C  s                81     -3.277405   6 N  px        
   118     -2.863304  10 C  py              113      2.801638  10 C  s         

 Vector  530  Occ=0.000000D+00  E= 1.946137D+00
              MO Center=  6.4D-01,  2.7D-01, -1.3D+00, r^2= 7.0D+00
   Bfn.  Coefficient  Atom+Function         Bfn.  Coefficient  Atom+Function  
  ----- ------------  ---------------      ----- ------------  ---------------
    22     20.576799   3 Ni s                23     -7.438752   3 Ni s         
    12     -5.282373   2 O  s                54     -5.068460   3 Ni dyy       
   487      4.963935  85 C  s                56     -4.845975   3 Ni dzz       
    51     -4.217057   3 Ni dxx               8      3.049297   1 C  py        
   507     -3.030781  88 C  s               396     -3.000437  71 N  s         

 Vector  531  Occ=0.000000D+00  E= 2.878057D+00
              MO Center=  3.8D-02, -2.8D-01, -1.0D+00, r^2= 2.7D+00
   Bfn.  Coefficient  Atom+Function         Bfn.  Coefficient  Atom+Function  
  ----- ------------  ---------------      ----- ------------  ---------------
    22     10.883131   3 Ni s                21      5.658258   3 Ni s         
    23     -5.111728   3 Ni s                20     -3.131836   3 Ni s         
    45     -2.775981   3 Ni dxx              48     -2.777744   3 Ni dyy       
    50     -2.771597   3 Ni dzz              34      1.933359   3 Ni py        
   487      1.795669  85 C  s               175     -1.627407  20 C  s         

 Vector  532  Occ=0.000000D+00  E= 3.147469D+00
              MO Center=  2.8D-01, -4.7D-01, -6.3D-01, r^2= 1.5D+00
   Bfn.  Coefficient  Atom+Function         Bfn.  Coefficient  Atom+Function  
  ----- ------------  ---------------      ----- ------------  ---------------
    22      6.968953   3 Ni s                21      2.048074   3 Ni s         
   487      1.601190  85 C  s               462     -1.486329  80 H  s         
    20     -1.477315   3 Ni s                51     -1.362175   3 Ni dxx       
    56     -1.318240   3 Ni dzz              33      1.290102   3 Ni px        
   447      1.283880  77 C  px               50     -1.268797   3 Ni dzz       

 Vector  533  Occ=0.000000D+00  E= 3.288815D+00
              MO Center=  1.8D-01, -3.5D-01, -8.7D-01, r^2= 1.3D+00
   Bfn.  Coefficient  Atom+Function         Bfn.  Coefficient  Atom+Function  
  ----- ------------  ---------------      ----- ------------  ---------------
    22      2.398865   3 Ni s               448     -2.350876  77 C  py        
   434      2.281249  76 C  s                 8      1.800144   1 C  py        
   452     -1.739507  78 C  s               447     -1.338405  77 C  px        
     3     -1.329193   1 C  s                31      1.236842   3 Ni py        
     7      1.208174   1 C  px              449      1.167488  77 C  pz        

 Vector  534  Occ=0.000000D+00  E= 3.378958D+00
              MO Center=  8.5D-02, -4.6D-01, -8.4D-01, r^2= 1.4D+00
   Bfn.  Coefficient  Atom+Function         Bfn.  Coefficient  Atom+Function  
  ----- ------------  ---------------      ----- ------------  ---------------
   487     -2.038902  85 C  s               475      1.869178  83 C  pz        
    64     -1.588366   4 C  py               22     -1.536442   3 Ni s         
    77      1.273844   6 N  s               478      1.255744  84 C  s         
    63      1.226114   4 C  px               35     -1.057466   3 Ni pz        
    30      0.996051   3 Ni px              473     -0.999058  83 C  px        

 Vector  535  Occ=0.000000D+00  E= 4.758675D+00
              MO Center=  8.7D-02, -3.8D-01, -8.4D-01, r^2= 6.3D-01
   Bfn.  Coefficient  Atom+Function         Bfn.  Coefficient  Atom+Function  
  ----- ------------  ---------------      ----- ------------  ---------------
    46      1.030238   3 Ni dxy              45     -0.953216   3 Ni dxx       
    22      0.918313   3 Ni s                40     -0.825758   3 Ni dxy       
    49      0.809428   3 Ni dyz             487      0.701647  85 C  s         
    39      0.673754   3 Ni dxx              43     -0.643893   3 Ni dyz       
    59     -0.630454   4 C  s                56     -0.617467   3 Ni dzz       

 Vector  536  Occ=0.000000D+00  E= 4.807690D+00
              MO Center=  7.9D-02, -4.1D-01, -8.3D-01, r^2= 6.8D-01
   Bfn.  Coefficient  Atom+Function         Bfn.  Coefficient  Atom+Function  
  ----- ------------  ---------------      ----- ------------  ---------------
    95      1.331753   8 C  s               443      1.332001  77 C  s         
    49     -1.189093   3 Ni dyz               9     -1.080079   1 C  pz        
    47     -1.062381   3 Ni dxz               3     -1.032841   1 C  s         
   447     -1.000087  77 C  px               43      0.935426   3 Ni dyz       
     7     -0.876322   1 C  px              135     -0.877303  14 C  s         

 Vector  537  Occ=0.000000D+00  E= 4.831434D+00
              MO Center=  9.5D-02, -3.8D-01, -8.6D-01, r^2= 6.6D-01
   Bfn.  Coefficient  Atom+Function         Bfn.  Coefficient  Atom+Function  
  ----- ------------  ---------------      ----- ------------  ---------------
    64     -1.262333   4 C  py               22      1.168121   3 Ni s         
    48     -1.141259   3 Ni dyy              68     -1.061152   5 N  s         
    77      0.927541   6 N  s                56     -0.844178   3 Ni dzz       
    50      0.810151   3 Ni dzz              42      0.790411   3 Ni dyy       
     3     -0.758139   1 C  s                44     -0.729357   3 Ni dzz       

 Vector  538  Occ=0.000000D+00  E= 4.850317D+00
              MO Center=  6.5D-02, -4.0D-01, -8.5D-01, r^2= 6.7D-01
   Bfn.  Coefficient  Atom+Function         Bfn.  Coefficient  Atom+Function  
  ----- ------------  ---------------      ----- ------------  ---------------
    22      4.064953   3 Ni s                 3     -1.494545   1 C  s         
    47      1.382211   3 Ni dxz              46     -1.359271   3 Ni dxy       
    34      1.182965   3 Ni py               41     -1.070875   3 Ni dxz       
    40      1.056561   3 Ni dxy              53     -0.988432   3 Ni dxz       
    52      0.940158   3 Ni dxy              45     -0.815606   3 Ni dxx       

 Vector  539  Occ=0.000000D+00  E= 5.052257D+00
              MO Center=  9.1D-02, -3.9D-01, -8.5D-01, r^2= 6.9D-01
   Bfn.  Coefficient  Atom+Function         Bfn.  Coefficient  Atom+Function  
  ----- ------------  ---------------      ----- ------------  ---------------
    22      2.142813   3 Ni s                49     -1.436384   3 Ni dyz       
    55      1.406776   3 Ni dyz              46      1.315523   3 Ni dxy       
    52     -1.284653   3 Ni dxy              47      1.079504   3 Ni dxz       
    43      1.046694   3 Ni dyz              53     -1.048483   3 Ni dxz       
    40     -0.957172   3 Ni dxy              63     -0.904577   4 C  px        

 Vector  540  Occ=0.000000D+00  E= 1.022358D+01
              MO Center=  9.4D-02, -4.0D-01, -8.5D-01, r^2= 6.7D-01
   Bfn.  Coefficient  Atom+Function         Bfn.  Coefficient  Atom+Function  
  ----- ------------  ---------------      ----- ------------  ---------------
    21     27.807570   3 Ni s                20    -17.569410   3 Ni s         
    45     -7.612738   3 Ni dxx              48     -7.607740   3 Ni dyy       
    50     -7.569751   3 Ni dzz              22      4.874703   3 Ni s         
    23     -1.950396   3 Ni s                19      1.511339   3 Ni s         
    56     -0.769407   3 Ni dzz             487      0.736135  85 C  s         

 Vector  541  Occ=0.000000D+00  E= 4.990561D+01
              MO Center=  8.7D-02, -3.9D-01, -8.5D-01, r^2= 1.1D-01
   Bfn.  Coefficient  Atom+Function         Bfn.  Coefficient  Atom+Function  
  ----- ------------  ---------------      ----- ------------  ---------------
    20     21.449961   3 Ni s                21    -20.743023   3 Ni s         
    45      5.176170   3 Ni dxx              48      5.173649   3 Ni dyy       
    50      5.165389   3 Ni dzz              19     -4.354206   3 Ni s         
    39     -2.734922   3 Ni dxx              42     -2.734160   3 Ni dyy       
    44     -2.731367   3 Ni dzz              22     -2.086447   3 Ni s         

 Vector  542  Occ=0.000000D+00  E= 1.173893D+02
              MO Center=  8.6D-02, -3.9D-01, -8.5D-01, r^2= 2.9D-02
   Bfn.  Coefficient  Atom+Function         Bfn.  Coefficient  Atom+Function  
  ----- ------------  ---------------      ----- ------------  ---------------
    26      0.834819   3 Ni pz               24      0.519960   3 Ni px        
    25     -0.408582   3 Ni py               29     -0.316924   3 Ni pz        
    22     -0.213878   3 Ni s                27     -0.197329   3 Ni px        
    32      0.165741   3 Ni pz               28      0.155170   3 Ni py        
    30      0.103386   3 Ni px              462      0.097632  80 H  s         

 Vector  543  Occ=0.000000D+00  E= 1.175627D+02
              MO Center=  8.7D-02, -3.9D-01, -8.5D-01, r^2= 3.1D-02
   Bfn.  Coefficient  Atom+Function         Bfn.  Coefficient  Atom+Function  
  ----- ------------  ---------------      ----- ------------  ---------------
    25      0.902889   3 Ni py               24      0.558333   3 Ni px        
    28     -0.348976   3 Ni py               27     -0.215757   3 Ni px        
   448     -0.200449  77 C  py              434      0.194538  76 C  s         
    31      0.193418   3 Ni py               22      0.166708   3 Ni s         
   452     -0.161023  78 C  s                 8      0.153329   1 C  py        

 Vector  544  Occ=0.000000D+00  E= 1.175952D+02
              MO Center=  8.6D-02, -3.9D-01, -8.5D-01, r^2= 3.1D-02
   Bfn.  Coefficient  Atom+Function         Bfn.  Coefficient  Atom+Function  
  ----- ------------  ---------------      ----- ------------  ---------------
    24      0.744009   3 Ni px               26     -0.655159   3 Ni pz        
    25     -0.391786   3 Ni py               27     -0.289088   3 Ni px        
    29      0.254588   3 Ni pz               30      0.162714   3 Ni px        
    28      0.152194   3 Ni py               32     -0.143138   3 Ni pz        
   487     -0.136581  85 C  s                64     -0.135721   4 C  py        

 Vector  545  Occ=0.000000D+00  E= 6.766351D+02
              MO Center=  8.6D-02, -3.9D-01, -8.5D-01, r^2= 2.3D-02
   Bfn.  Coefficient  Atom+Function         Bfn.  Coefficient  Atom+Function  
  ----- ------------  ---------------      ----- ------------  ---------------
    20     28.865034   3 Ni s                21    -15.335715   3 Ni s         
    39     -7.285651   3 Ni dxx              42     -7.285503   3 Ni dyy       
    44     -7.286259   3 Ni dzz              19     -4.275232   3 Ni s         
    45      3.402643   3 Ni dxx              48      3.402093   3 Ni dyy       
    50      3.404685   3 Ni dzz              54      0.114507   3 Ni dyy       


 center of mass
 --------------
 x =   0.05406220 y =  -0.02095804 z =  -0.03777385

 moments of inertia (a.u.)
 ------------------
       25800.559771773005          -0.000000000000          -0.000000000002
          -0.000000000000       20399.372219113626           0.000000000000
          -0.000000000002           0.000000000000       29124.839559005788

     Multipole analysis of the density
     ---------------------------------

     L   x y z        total         alpha         beta         nuclear
     -   - - -        -----         -----         ----         -------
     0   0 0 0     -0.000000   -172.000000   -172.000000    344.000000

     1   1 0 0     -1.885540     -0.130680     -0.130680     -1.624181
     1   0 1 0      1.016162     -3.163077     -3.163077      7.342316
     1   0 0 1      2.108607     -6.967510     -6.967510     16.043627

     2   2 0 0   -203.340210  -3416.036735  -3416.036735   6628.733260
     2   1 1 0      4.271173      4.401681      4.401681     -4.532189
     2   1 0 1      3.553045    -45.261594    -45.261594     94.076234
     2   0 2 0   -210.410495  -4855.662785  -4855.662785   9500.915075
     2   0 1 1     -2.982542      2.536798      2.536798     -8.056138
     2   0 0 2   -206.626628  -2571.526707  -2571.526707   4936.426787


 Task  times  cpu:     2814.8s     wall:     2814.8s


                                NWChem Input Module
                                -------------------


 Summary of allocated global arrays
-----------------------------------
  No active global arrays


MA_summarize_allocated_blocks: starting scan ...
heap block 'gridpts', handle 108, address 0x57e68fbf0220:
	type of elements:		double precision
	number of elements:		203683869
	address of client space:	0x57e68fbf0280
	index for client space:		22736683
	total number of bytes:		1629471056
MA_summarize_allocated_blocks: scan completed: 1 heap block, 0 stack blocks
MA usage statistics:

	allocation statistics:
					      heap	     stack
					      ----	     -----
	current number of blocks	         1	         0
	maximum number of blocks	        34	        58
	current total bytes		1629471056	         0
	maximum total bytes		1648841992	  48890888
	maximum total K-bytes		   1648842	     48891
	maximum total M-bytes		      1649	        49


                                     CITATION
                                     --------
                Please cite the following reference when publishing
                           results obtained with NWChem:

          E. Apra, E. J. Bylaska, W. A. de Jong, N. Govind, K. Kowalski,
       T. P. Straatsma, M. Valiev, H. J. J. van Dam, Y. Alexeev, J. Anchell,
       V. Anisimov, F. W. Aquino, R. Atta-Fynn, J. Autschbach, N. P. Bauman,
     J. C. Becca, D. E. Bernholdt, K. Bhaskaran-Nair, S. Bogatko, P. Borowski,
         J. Boschen, J. Brabec, A. Bruner, E. Cauet, Y. Chen, G. N. Chuev,
      C. J. Cramer, J. Daily, M. J. O. Deegan, T. H. Dunning Jr., M. Dupuis,
   K. G. Dyall, G. I. Fann, S. A. Fischer, A. Fonari, H. Fruchtl, L. Gagliardi,
      J. Garza, N. Gawande, S. Ghosh, K. Glaesemann, A. W. Gotz, J. Hammond,
       V. Helms, E. D. Hermes, K. Hirao, S. Hirata, M. Jacquelin, L. Jensen,
   B. G. Johnson, H. Jonsson, R. A. Kendall, M. Klemm, R. Kobayashi, V. Konkov,
      S. Krishnamoorthy, M. Krishnan, Z. Lin, R. D. Lins, R. J. Littlefield,
      A. J. Logsdail, K. Lopata, W. Ma, A. V. Marenich, J. Martin del Campo,
   D. Mejia-Rodriguez, J. E. Moore, J. M. Mullin, T. Nakajima, D. R. Nascimento,
    J. A. Nichols, P. J. Nichols, J. Nieplocha, A. Otero-de-la-Roza, B. Palmer,
    A. Panyala, T. Pirojsirikul, B. Peng, R. Peverati, J. Pittner, L. Pollack,
   R. M. Richard, P. Sadayappan, G. C. Schatz, W. A. Shelton, D. W. Silverstein,
   D. M. A. Smith, T. A. Soares, D. Song, M. Swart, H. L. Taylor, G. S. Thomas,
            V. Tipparaju, D. G. Truhlar, K. Tsemekhman, T. Van Voorhis,
      A. Vazquez-Mayagoitia, P. Verma, O. Villa, A. Vishnu, K. D. Vogiatzis,
        D. Wang, J. H. Weare, M. J. Williamson, T. L. Windus, K. Wolinski,
        A. T. Wong, Q. Wu, C. Yang, Q. Yu, M. Zacharias, Z. Zhang, Y. Zhao,
                                and R. J. Harrison
                        "NWChem: Past, present, and future
                         J. Chem. Phys. 152, 184102 (2020)
                               doi:10.1063/5.0004997

                                      AUTHORS
                                      -------
  E. Apra, E. J. Bylaska, N. Govind, K. Kowalski, M. Valiev, D. Mejia-Rodriguez,
       A. Kunitsa, N. P. Bauman, A. Panyala, W. A. de Jong, T. P. Straatsma,
   H. J. J. van Dam, D. Wang, T. L. Windus, J. Hammond, J. Autschbach, A. Woods,
    K. Bhaskaran-Nair, J. Brabec, K. Lopata, S. A. Fischer, S. Krishnamoorthy,
     M. Jacquelin, W. Ma, M. Klemm, O. Villa, Y. Chen, V. Anisimov, F. Aquino,
     S. Hirata, M. T. Hackler, E. Hermes, L. Jensen, J. E. Moore, J. C. Becca,
      V. Konjkov, T. Risthaus, M. Malagoli, A. Marenich, A. Otero-de-la-Roza,
        J. Mullin, P. Nichols, R. Peverati, J. Pittner, Y. Zhao, P.-D. Fan,
        A. Fonari, M. J. Williamson, R. J. Harrison, J. R. Rehr, M. Dupuis,
     D. Silverstein, D. M. A. Smith, J. Nieplocha, V. Tipparaju, M. Krishnan,
     B. E. Van Kuiken, A. Vazquez-Mayagoitia, M. Swart, Q. Wu, T. Van Voorhis,
     A. A. Auer, M. Nooijen, L. D. Crosby, E. Brown, G. Cisneros, G. I. Fann,
   H. Fruchtl, J. Garza, K. Hirao, R. A. Kendall, J. A. Nichols, K. Tsemekhman,
    K. Wolinski, J. Anchell, D. E. Bernholdt, P. Borowski, T. Clark, D. Clerc,
   H. Dachsel, M. J. O. Deegan, K. Dyall, D. Elwood, E. Glendening, M. Gutowski,
   A. C. Hess, J. Jaffe, B. G. Johnson, J. Ju, R. Kobayashi, R. Kutteh, Z. Lin,
   R. Littlefield, X. Long, B. Meng, T. Nakajima, S. Niu, L. Pollack, M. Rosing,
   K. Glaesemann, G. Sandrone, M. Stave, H. Taylor, G. Thomas, J. H. van Lenthe,
                               A. T. Wong, Z. Zhang.

 Total times  cpu:     2815.4s     wall:     2815.4s
