 argument  1 = nwchem.in
  NWChem w/ OpenMP: maximum threads =    1
                                         
                                         


             Northwest Computational Chemistry Package (NWChem) 7.2.3
             --------------------------------------------------------


                    Environmental Molecular Sciences Laboratory
                       Pacific Northwest National Laboratory
                                Richland, WA 99352

                              Copyright (c) 1994-2022
                       Pacific Northwest National Laboratory
                            Battelle Memorial Institute

             NWChem is an open-source computational chemistry package
                        distributed under the terms of the
                      Educational Community License (ECL) 2.0
             A copy of the license is included with this distribution
                              in the LICENSE.TXT file

                                  ACKNOWLEDGMENT
                                  --------------

            This software and its documentation were developed at the
            EMSL at Pacific Northwest National Laboratory, a multiprogram
            national laboratory, operated for the U.S. Department of Energy
            by Battelle under Contract Number DE-AC05-76RL01830. Support
            for this work was provided by the Department of Energy Office
            of Biological and Environmental Research, Office of Basic
            Energy Sciences, and the Office of Advanced Scientific Computing.


           Job information
           ---------------

    hostname        = 8a041a3bed88
    program         = nwchem
    date            = Sun Jun 29 05:21:25 2025

    compiled        = Fri_May_02_22:05:35_2025
    source          = /opt/nwchem
    nwchem branch   = 7.2.3
    nwchem revision = N/A
    ga revision     = 5.9.1
    use scalapack   = T
    input           = nwchem.in
    prefix          = ni_singlepoint.
    data base       = ./ni_singlepoint.db
    status          = startup
    nproc           =        5
    time left       =     -1s



           Memory information
           ------------------

    heap     =    509724440 doubles =     3888.9 Mbytes
    stack    =    509724441 doubles =     3888.9 Mbytes
    global   =    291271111 doubles =     2222.2 Mbytes (distinct from heap & stack)
    total    =   1310719992 doubles =    10000.0 Mbytes
    verify   = yes
    hardfail = no 


           Directory information
           ---------------------

  0 permanent = .
  0 scratch   = .




                                NWChem Input Module
                                -------------------


                          Ni complex single-point energy
                          ------------------------------

 Scaling coordinates for geometry "geometry" by  1.889725989
 (inverse scale =  0.529177249)

 C1  symmetry detected

          ------
          auto-z
          ------
  no constraints, skipping    0.0000000000000000     
  no constraints, skipping    0.0000000000000000     


                             Geometry "geometry" -> ""
                             -------------------------

 Output coordinates in angstroms (scale by  1.889725989 to convert to a.u.)

  No.       Tag          Charge          X              Y              Z
 ---- ---------------- ---------- -------------- -------------- --------------
    1 C                    6.0000     1.37816060     0.84782681    -1.16492663
    2 O                    8.0000     1.24870361     1.56959067    -2.12549380
    3 Ni                  28.0000     0.11179947    -0.43485206    -0.81506920
    4 C                    6.0000    -1.13515227     0.44725418     0.32140858
    5 N                    7.0000    -2.02455417    -0.33350670     0.95795129
    6 N                    7.0000    -1.48929770     1.71333542     0.54904665
    7 C                    6.0000    -3.04535783     0.40253282     1.70411463
    8 C                    6.0000    -1.94121478    -1.75924604     0.97741966
    9 C                    6.0000    -2.74496652     1.84742072     1.29711146
   10 C                    6.0000    -0.80844511     2.87290154     0.06382681
   11 H                    1.0000    -4.04409113     0.07691053     1.40917404
   12 H                    1.0000    -2.93358799     0.23364963     2.77799289
   13 C                    6.0000    -2.53702844    -2.48392654    -0.06051238
   14 C                    6.0000    -1.27649943    -2.38322443     2.03999355
   15 H                    1.0000    -3.51792464     2.26898387     0.65026615
   16 H                    1.0000    -2.61330955     2.51381459     2.14965557
   17 C                    6.0000     0.06074269     3.53743777     0.93384681
   18 C                    6.0000    -1.05295956     3.31376318    -1.23926091
   19 C                    6.0000    -2.41583574    -3.86973353    -0.03598350
   20 C                    6.0000    -3.32998755    -1.80656757    -1.16177885
   21 C                    6.0000    -1.20049680    -3.77042882     2.03401828
   22 C                    6.0000    -0.65426227    -1.58903247     3.17188279
   23 C                    6.0000     0.73031314     4.65550490     0.45022665
   24 C                    6.0000     0.25347341     3.09857938     2.37436719
   25 C                    6.0000    -0.36324075     4.43654926    -1.67834471
   26 C                    6.0000    -2.05774014     2.62523146    -2.14350683
   27 C                    6.0000    -1.75326237    -4.50686943     0.99836512
   28 H                    1.0000    -2.84581467    -4.45691698    -0.83767366
   29 C                    6.0000    -4.81739779    -2.14825214    -1.02894121
   30 C                    6.0000    -2.80322760    -2.16311213    -2.55184869
   31 H                    1.0000    -3.22291722    -0.72679063    -1.03699515
   32 H                    1.0000    -0.68233030    -4.28130061     2.83638197
   33 C                    6.0000     0.82787081    -1.91949565     3.34902138
   34 C                    6.0000    -1.42206614    -1.81718322     4.47667599
   35 H                    1.0000    -0.71911296    -0.52905622     2.91647275
   36 C                    6.0000     0.52630752     5.09590194    -0.84652485
   37 H                    1.0000     1.42070275     5.18561194     1.09508629
   38 C                    6.0000    -0.31758782     4.14403179     3.33774632
   39 C                    6.0000     1.71795967     2.81192005     2.70256435
   40 H                    1.0000    -0.29829421     2.16655663     2.51945829
   41 H                    1.0000    -0.51128070     4.79181705    -2.69004506
   42 C                    6.0000    -1.51673508     2.36933942    -3.55020574
   43 C                    6.0000    -3.35193433     3.44324997    -2.21220955
   44 H                    1.0000    -2.29066065     1.65218828    -1.70494077
   45 H                    1.0000    -1.66001074    -5.58524765     0.99469682
   46 H                    1.0000    -5.20509251    -1.87778221    -0.04449713
   47 H                    1.0000    -4.98294571    -3.21880917    -1.16621264
   48 H                    1.0000    -5.40019648    -1.61886444    -1.78480407
   49 H                    1.0000    -1.73896066    -1.93773328    -2.63807395
   50 H                    1.0000    -3.34588060    -1.60087277    -3.31431069
   51 H                    1.0000    -2.93908656    -3.22548127    -2.76466544
   52 H                    1.0000     1.37405704    -1.78818345     2.41550184
   53 H                    1.0000     0.96826862    -2.95100398     3.67787296
   54 H                    1.0000     1.27277793    -1.26623693     4.10200324
   55 H                    1.0000    -2.48103435    -1.57423143     4.36930736
   56 H                    1.0000    -1.00737346    -1.20440246     5.27904941
   57 H                    1.0000    -1.35500018    -2.86301919     4.78365042
   58 H                    1.0000     1.06336241     5.96231325    -1.21146124
   59 H                    1.0000    -1.36764055     4.35956618     3.13008060
   60 H                    1.0000     0.23238342     5.08370341     3.25487375
   61 H                    1.0000    -0.23381814     3.79838867     4.37006899
   62 H                    1.0000     2.13068177     2.05411008     2.03943174
   63 H                    1.0000     1.81009208     2.45696038     3.73138371
   64 H                    1.0000     2.32810013     3.71214769     2.60609730
   65 H                    1.0000    -0.56050396     1.85234161    -3.50633110
   66 H                    1.0000    -1.37819420     3.30408482    -4.09789929
   67 H                    1.0000    -2.22896083     1.76412491    -4.11513855
   68 H                    1.0000    -3.77741068     3.62344441    -1.22302079
   69 H                    1.0000    -4.09844769     2.92836424    -2.82030456
   70 H                    1.0000    -3.15947521     4.41700170    -2.66822331
   71 N                    7.0000     0.87643677    -1.61034998    -1.99767182
   72 C                    6.0000     4.86877187     1.21792923     1.27821470
   73 C                    6.0000     4.57289871     2.18462808     0.32315001
   74 H                    1.0000     4.29630774    -0.66000714     2.14734702
   75 C                    6.0000     4.05634408     0.10024595     1.41465656
   76 C                    6.0000     3.45254633     2.04384041    -0.47832802
   77 C                    6.0000     2.62005331     0.93874210    -0.32272172
   78 C                    6.0000     2.93267042    -0.03831514     0.61193072
   79 H                    1.0000     3.19562482     2.77930628    -1.23015507
   80 H                    1.0000     2.29674274    -0.91135300     0.69459728
   81 H                    1.0000     5.73779811     1.33603737     1.91339493
   82 H                    1.0000     5.21763172     3.04699618     0.20726671
   83 C                    6.0000     1.76753408    -2.58557116    -1.57560760
   84 C                    6.0000     2.93399704    -2.93873184    -2.27205683
   85 C                    6.0000     1.48829789    -3.29313818    -0.39261329
   86 C                    6.0000     3.75968960    -3.95488656    -1.80936551
   87 H                    1.0000     3.20958309    -2.41066135    -3.17383744
   88 C                    6.0000     2.31139726    -4.30768447     0.05627289
   89 H                    1.0000     0.57611005    -3.05353904     0.14313914
   90 C                    6.0000     3.45788083    -4.65613216    -0.65250924
   91 H                    1.0000     4.65553209    -4.19898418    -2.36832547
   92 H                    1.0000     2.04375667    -4.85106302     0.95585527
   93 H                    1.0000     4.09389276    -5.46393452    -0.31503696
   94 C                    6.0000     0.99318957    -1.20841099    -3.38828699
   95 H                    1.0000     1.95724399    -0.75007761    -3.64155758
   96 H                    1.0000     0.84581733    -2.07108778    -4.04944347
   97 H                    1.0000     0.22657824    -0.46833324    -3.61423633

      Atomic Mass 
      ----------- 

      C                 12.000000
      O                 15.994910
      Ni                57.935300
      N                 14.003070
      H                  1.007825


 Effective nuclear repulsion energy (a.u.)    7256.5042179831

            Nuclear Dipole moment (a.u.) 
            ----------------------------
        X                 Y               Z
 ---------------- ---------------- ----------------
     0.0000000000     0.0000000000    -0.0000000000



                                Z-matrix (autoz)
                                -------- 

 Units are Angstrom for bonds and degrees for angles

      Type          Name      I     J     K     L     M      Value
      ----------- --------  ----- ----- ----- ----- ----- ----------
    1 Stretch                  1     2                       1.20847
    2 Stretch                  1     3                       1.83612
    3 Stretch                  1    77                       1.50329
    4 Stretch                  3     4                       1.90383
    5 Stretch                  3    71                       1.83440
    6 Stretch                  4     5                       1.34380
    7 Stretch                  4     6                       1.33424
    8 Stretch                  5     7                       1.46306
    9 Stretch                  5     8                       1.42831
   10 Stretch                  6     9                       1.46775
   11 Stretch                  6    10                       1.42954
   12 Stretch                  7     9                       1.53088
   13 Stretch                  7    11                       1.09109
   14 Stretch                  7    12                       1.09281
   15 Stretch                  8    13                       1.39909
   16 Stretch                  8    14                       1.40009
   17 Stretch                  9    15                       1.09251
   18 Stretch                  9    16                       1.09007
   19 Stretch                 10    17                       1.39787
   20 Stretch                 10    18                       1.39721
   21 Stretch                 13    19                       1.39131
   22 Stretch                 13    20                       1.51670
   23 Stretch                 14    21                       1.38930
   24 Stretch                 14    22                       1.51628
   25 Stretch                 17    23                       1.39007
   26 Stretch                 17    24                       1.51817
   27 Stretch                 18    25                       1.38894
   28 Stretch                 18    26                       1.51701
   29 Stretch                 19    27                       1.38377
   30 Stretch                 19    28                       1.08276
   31 Stretch                 20    29                       1.53192
   32 Stretch                 20    30                       1.52869
   33 Stretch                 20    31                       1.09222
   34 Stretch                 21    27                       1.38581
   35 Stretch                 21    32                       1.08318
   36 Stretch                 22    33                       1.52882
   37 Stretch                 22    34                       1.53103
   38 Stretch                 22    35                       1.09224
   39 Stretch                 23    36                       1.38461
   40 Stretch                 23    37                       1.08328
   41 Stretch                 24    38                       1.53205
   42 Stretch                 24    39                       1.52794
   43 Stretch                 24    40                       1.09278
   44 Stretch                 25    36                       1.38491
   45 Stretch                 25    41                       1.08244
   46 Stretch                 26    42                       1.52871
   47 Stretch                 26    43                       1.53258
   48 Stretch                 26    44                       1.09243
   49 Stretch                 27    45                       1.08241
   50 Stretch                 29    46                       1.09206
   51 Stretch                 29    47                       1.09194
   52 Stretch                 29    48                       1.09144
   53 Stretch                 30    49                       1.09128
   54 Stretch                 30    50                       1.09176
   55 Stretch                 30    51                       1.09196
   56 Stretch                 33    52                       1.08950
   57 Stretch                 33    53                       1.09173
   58 Stretch                 33    54                       1.09164
   59 Stretch                 34    55                       1.09177
   60 Stretch                 34    56                       1.09145
   61 Stretch                 34    57                       1.09202
   62 Stretch                 36    58                       1.08272
   63 Stretch                 38    59                       1.09187
   64 Stretch                 38    60                       1.09193
   65 Stretch                 38    61                       1.09187
   66 Stretch                 39    62                       1.08828
   67 Stretch                 39    63                       1.09222
   68 Stretch                 39    64                       1.09178
   69 Stretch                 42    65                       1.08793
   70 Stretch                 42    66                       1.09220
   71 Stretch                 42    67                       1.09211
   72 Stretch                 43    68                       1.09179
   73 Stretch                 43    69                       1.09186
   74 Stretch                 43    70                       1.09233
   75 Stretch                 71    83                       1.38681
   76 Stretch                 71    94                       1.45224
   77 Stretch                 72    73                       1.39075
   78 Stretch                 72    75                       1.38848
   79 Stretch                 72    81                       1.08287
   80 Stretch                 73    76                       1.38469
   81 Stretch                 73    82                       1.08295
   82 Stretch                 74    75                       1.08278
   83 Stretch                 75    78                       1.38788
   84 Stretch                 76    77                       1.39230
   85 Stretch                 76    79                       1.08266
   86 Stretch                 77    78                       1.38778
   87 Stretch                 78    80                       1.08325
   88 Stretch                 83    84                       1.40371
   89 Stretch                 83    85                       1.40645
   90 Stretch                 84    86                       1.38868
   91 Stretch                 84    87                       1.08075
   92 Stretch                 85    88                       1.38141
   93 Stretch                 85    89                       1.08468
   94 Stretch                 86    90                       1.38606
   95 Stretch                 86    91                       1.08377
   96 Stretch                 88    90                       1.39220
   97 Stretch                 88    92                       1.08450
   98 Stretch                 90    93                       1.08210
   99 Stretch                 94    95                       1.09709
  100 Stretch                 94    96                       1.09684
  101 Stretch                 94    97                       1.08925
  102 Bend                     1     3     4               103.99255
  103 Bend                     1     3    71                92.13940
  104 Bend                     1    77    76               118.64272
  105 Bend                     1    77    78               121.38797
  106 Bend                     2     1     3               119.65677
  107 Bend                     2     1    77               119.84755
  108 Bend                     3     1    77               120.34914
  109 Bend                     3     4     5               116.55508
  110 Bend                     3     4     6               135.67231
  111 Bend                     3    71    83               121.48373
  112 Bend                     3    71    94               118.26037
  113 Bend                     4     3    71               162.69927
  114 Bend                     4     5     7               114.27226
  115 Bend                     4     5     8               123.21638
  116 Bend                     4     6     9               113.62314
  117 Bend                     4     6    10               125.82992
  118 Bend                     5     4     6               107.14766
  119 Bend                     5     7     9               101.67299
  120 Bend                     5     7    11               110.52742
  121 Bend                     5     7    12               110.61332
  122 Bend                     5     8    13               118.82096
  123 Bend                     5     8    14               118.87596
  124 Bend                     6     9     7               102.54156
  125 Bend                     6     9    15               109.80167
  126 Bend                     6     9    16               110.55668
  127 Bend                     6    10    17               118.06698
  128 Bend                     6    10    18               119.28482
  129 Bend                     7     5     8               122.40744
  130 Bend                     7     9    15               112.50552
  131 Bend                     7     9    16               113.12645
  132 Bend                     8    13    19               117.75820
  133 Bend                     8    13    20               122.00428
  134 Bend                     8    14    21               117.88550
  135 Bend                     8    14    22               121.86606
  136 Bend                     9     6    10               120.42078
  137 Bend                     9     7    11               112.91825
  138 Bend                     9     7    12               112.77096
  139 Bend                    10    17    23               117.73236
  140 Bend                    10    17    24               122.14558
  141 Bend                    10    18    25               117.58078
  142 Bend                    10    18    26               121.91219
  143 Bend                    11     7    12               108.24815
  144 Bend                    13     8    14               122.30071
  145 Bend                    13    19    27               120.89717
  146 Bend                    13    19    28               119.50575
  147 Bend                    13    20    29               110.18510
  148 Bend                    13    20    30               112.08207
  149 Bend                    13    20    31               107.89686
  150 Bend                    14    21    27               120.79765
  151 Bend                    14    21    32               119.59824
  152 Bend                    14    22    33               111.78439
  153 Bend                    14    22    34               110.63008
  154 Bend                    14    22    35               108.02188
  155 Bend                    15     9    16               108.21713
  156 Bend                    17    10    18               122.63468
  157 Bend                    17    23    36               120.71015
  158 Bend                    17    23    37               119.56934
  159 Bend                    17    24    38               110.61440
  160 Bend                    17    24    39               112.31638
  161 Bend                    17    24    40               107.96454
  162 Bend                    18    25    36               120.92736
  163 Bend                    18    25    41               119.52960
  164 Bend                    18    26    42               112.95880
  165 Bend                    18    26    43               110.10744
  166 Bend                    18    26    44               107.83001
  167 Bend                    19    13    20               120.21024
  168 Bend                    19    27    21               120.32618
  169 Bend                    19    27    45               119.83062
  170 Bend                    20    29    46               111.56920
  171 Bend                    20    29    47               110.79203
  172 Bend                    20    29    48               110.50091
  173 Bend                    20    30    49               111.08369
  174 Bend                    20    30    50               110.10038
  175 Bend                    20    30    51               111.17785
  176 Bend                    21    14    22               120.24838
  177 Bend                    21    27    45               119.84167
  178 Bend                    22    33    52               111.14173
  179 Bend                    22    33    53               111.33425
  180 Bend                    22    33    54               110.22343
  181 Bend                    22    34    55               111.68193
  182 Bend                    22    34    56               110.62844
  183 Bend                    22    34    57               110.57816
  184 Bend                    23    17    24               120.09760
  185 Bend                    23    36    25               120.37973
  186 Bend                    23    36    58               119.80896
  187 Bend                    24    38    59               111.93609
  188 Bend                    24    38    60               110.59567
  189 Bend                    24    38    61               110.48174
  190 Bend                    24    39    62               111.29980
  191 Bend                    24    39    63               110.12985
  192 Bend                    24    39    64               111.22096
  193 Bend                    25    18    26               120.48889
  194 Bend                    25    36    58               119.81111
  195 Bend                    26    42    65               110.70101
  196 Bend                    26    42    66               111.28851
  197 Bend                    26    42    67               109.75303
  198 Bend                    26    43    68               112.12119
  199 Bend                    26    43    69               110.52548
  200 Bend                    26    43    70               110.22693
  201 Bend                    27    19    28               119.59708
  202 Bend                    27    21    32               119.58781
  203 Bend                    29    20    30               111.18613
  204 Bend                    29    20    31               107.80485
  205 Bend                    30    20    31               107.49878
  206 Bend                    33    22    34               110.80711
  207 Bend                    33    22    35               107.12305
  208 Bend                    34    22    35               108.30806
  209 Bend                    36    23    37               119.72034
  210 Bend                    36    25    41               119.53581
  211 Bend                    38    24    39               110.50069
  212 Bend                    38    24    40               108.07776
  213 Bend                    39    24    40               107.18276
  214 Bend                    42    26    43               110.30042
  215 Bend                    42    26    44               107.20397
  216 Bend                    43    26    44               108.26231
  217 Bend                    46    29    47               107.59705
  218 Bend                    46    29    48               108.33654
  219 Bend                    47    29    48               107.90992
  220 Bend                    49    30    50               108.85667
  221 Bend                    49    30    51               107.87062
  222 Bend                    50    30    51               107.64261
  223 Bend                    52    33    53               107.90877
  224 Bend                    52    33    54               108.33529
  225 Bend                    53    33    54               107.77177
  226 Bend                    55    34    56               108.41450
  227 Bend                    55    34    57               107.47761
  228 Bend                    56    34    57               107.92089
  229 Bend                    59    38    60               107.46168
  230 Bend                    59    38    61               108.42669
  231 Bend                    60    38    61               107.79025
  232 Bend                    62    39    63               108.40155
  233 Bend                    62    39    64               107.96191
  234 Bend                    63    39    64               107.70139
  235 Bend                    65    42    66               108.38714
  236 Bend                    65    42    67               109.31268
  237 Bend                    66    42    67               107.31376
  238 Bend                    68    43    69               108.42011
  239 Bend                    68    43    70               107.44398
  240 Bend                    69    43    70               107.95897
  241 Bend                    71    83    84               124.04705
  242 Bend                    71    83    85               118.82869
  243 Bend                    71    94    95               114.03739
  244 Bend                    71    94    96               110.40897
  245 Bend                    71    94    97               109.27495
  246 Bend                    72    73    76               119.93001
  247 Bend                    72    73    82               120.02224
  248 Bend                    72    75    74               120.13359
  249 Bend                    72    75    78               119.81908
  250 Bend                    73    72    75               120.16743
  251 Bend                    73    72    81               119.84992
  252 Bend                    73    76    77               119.98626
  253 Bend                    73    76    79               121.65982
  254 Bend                    74    75    78               120.04702
  255 Bend                    75    72    81               119.98205
  256 Bend                    75    78    77               120.10751
  257 Bend                    75    78    80               120.77201
  258 Bend                    76    73    82               120.04772
  259 Bend                    76    77    78               119.95975
  260 Bend                    77    76    79               118.35302
  261 Bend                    77    78    80               119.11542
  262 Bend                    83    71    94               115.74700
  263 Bend                    83    84    86               120.85616
  264 Bend                    83    84    87               120.19575
  265 Bend                    83    85    88               121.63485
  266 Bend                    83    85    89               118.11815
  267 Bend                    84    83    85               117.11212
  268 Bend                    84    86    90               121.25398
  269 Bend                    84    86    91               118.97673
  270 Bend                    85    88    90               120.60129
  271 Bend                    85    88    92               119.37171
  272 Bend                    86    84    87               118.94292
  273 Bend                    86    90    88               118.52957
  274 Bend                    86    90    93               120.66365
  275 Bend                    88    85    89               120.18656
  276 Bend                    88    90    93               120.80301
  277 Bend                    90    86    91               119.76928
  278 Bend                    90    88    92               120.00857
  279 Bend                    95    94    96               107.90817
  280 Bend                    95    94    97               106.66137
  281 Bend                    96    94    97               108.34781
  282 Torsion                  1     3     4     5        -166.65290
  283 Torsion                  1     3     4     6          23.81599
  284 Torsion                  1     3    71    83          95.83109
  285 Torsion                  1     3    71    94         -59.33389
  286 Torsion                  1    77    76    73         177.22571
  287 Torsion                  1    77    76    79          -2.43557
  288 Torsion                  1    77    78    75        -177.29104
  289 Torsion                  1    77    78    80           3.52134
  290 Torsion                  2     1     3     4         -90.54057
  291 Torsion                  2     1     3    71          83.15321
  292 Torsion                  2     1    77    76          14.36698
  293 Torsion                  2     1    77    78        -166.75868
  294 Torsion                  3     1    77    76        -170.04797
  295 Torsion                  3     1    77    78           8.82637
  296 Torsion                  3     4     5     7        -173.85229
  297 Torsion                  3     4     5     8           9.77815
  298 Torsion                  3     4     6     9         165.65465
  299 Torsion                  3     4     6    10         -10.24920
  300 Torsion                  3    71    83    84        -139.22119
  301 Torsion                  3    71    83    85          42.08516
  302 Torsion                  3    71    94    95          93.88762
  303 Torsion                  3    71    94    96        -144.43135
  304 Torsion                  3    71    94    97         -25.35799
  305 Torsion                  4     3     1    77          93.86597
  306 Torsion                  4     3    71    83        -105.17075
  307 Torsion                  4     3    71    94          99.66427
  308 Torsion                  4     5     7     9           6.30519
  309 Torsion                  4     5     7    11         126.43483
  310 Torsion                  4     5     7    12        -113.69256
  311 Torsion                  4     5     8    13         -87.44347
  312 Torsion                  4     5     8    14          93.10381
  313 Torsion                  4     6     9     7           8.20401
  314 Torsion                  4     6     9    15        -111.58906
  315 Torsion                  4     6     9    16         129.07782
  316 Torsion                  4     6    10    17         -99.39869
  317 Torsion                  4     6    10    18          81.90329
  318 Torsion                  5     4     3    71          35.00724
  319 Torsion                  5     4     6     9          -4.55206
  320 Torsion                  5     4     6    10         179.54408
  321 Torsion                  5     7     9     6          -7.96597
  322 Torsion                  5     7     9    15         109.92721
  323 Torsion                  5     7     9    16        -127.05426
  324 Torsion                  5     8    13    19         178.53962
  325 Torsion                  5     8    13    20          -3.35750
  326 Torsion                  5     8    14    21        -179.60890
  327 Torsion                  5     8    14    22           0.47489
  328 Torsion                  6     4     3    71        -134.52387
  329 Torsion                  6     4     5     7          -1.48790
  330 Torsion                  6     4     5     8        -177.85746
  331 Torsion                  6     9     7    11        -126.39673
  332 Torsion                  6     9     7    12         110.49791
  333 Torsion                  6    10    17    23         179.30870
  334 Torsion                  6    10    17    24          -2.49016
  335 Torsion                  6    10    18    25        -179.42384
  336 Torsion                  6    10    18    26           2.11876
  337 Torsion                  7     5     8    13          96.47700
  338 Torsion                  7     5     8    14         -82.97572
  339 Torsion                  7     9     6    10        -175.64678
  340 Torsion                  8     5     7     9        -177.29232
  341 Torsion                  8     5     7    11         -57.16267
  342 Torsion                  8     5     7    12          62.70993
  343 Torsion                  8    13    19    27           1.42639
  344 Torsion                  8    13    19    28        -178.55416
  345 Torsion                  8    13    20    29        -110.73622
  346 Torsion                  8    13    20    30         124.88411
  347 Torsion                  8    13    20    31           6.72000
  348 Torsion                  8    14    21    27           0.74517
  349 Torsion                  8    14    21    32         179.27031
  350 Torsion                  8    14    22    33        -124.66958
  351 Torsion                  8    14    22    34         111.32904
  352 Torsion                  8    14    22    35          -7.05958
  353 Torsion                  9     6    10    17          84.95382
  354 Torsion                  9     6    10    18         -93.74420
  355 Torsion                 10     6     9    15          64.56015
  356 Torsion                 10     6     9    16         -54.77297
  357 Torsion                 10    17    23    36           0.62907
  358 Torsion                 10    17    23    37        -179.22005
  359 Torsion                 10    17    24    38        -111.98452
  360 Torsion                 10    17    24    39         124.03764
  361 Torsion                 10    17    24    40           6.08171
  362 Torsion                 10    18    25    36          -0.43169
  363 Torsion                 10    18    25    41         178.58536
  364 Torsion                 10    18    26    42        -133.42140
  365 Torsion                 10    18    26    43         102.77599
  366 Torsion                 10    18    26    44         -15.14778
  367 Torsion                 11     7     9    15          -8.50355
  368 Torsion                 11     7     9    16         114.51499
  369 Torsion                 12     7     9    15        -131.60891
  370 Torsion                 12     7     9    16          -8.59038
  371 Torsion                 13     8    14    21           0.95837
  372 Torsion                 13     8    14    22        -178.95784
  373 Torsion                 13    19    27    21           0.20059
  374 Torsion                 13    19    27    45        -179.34843
  375 Torsion                 13    20    29    46          56.23091
  376 Torsion                 13    20    29    47         -63.62570
  377 Torsion                 13    20    29    48         176.82592
  378 Torsion                 13    20    30    49         -55.03366
  379 Torsion                 13    20    30    50        -175.69402
  380 Torsion                 13    20    30    51          65.10379
  381 Torsion                 14     8    13    19          -2.02735
  382 Torsion                 14     8    13    20         176.07553
  383 Torsion                 14    21    27    19          -1.32546
  384 Torsion                 14    21    27    45         178.22351
  385 Torsion                 14    22    33    52          54.36362
  386 Torsion                 14    22    33    53         -65.96672
  387 Torsion                 14    22    33    54         174.48920
  388 Torsion                 14    22    34    55         -56.09843
  389 Torsion                 14    22    34    56        -176.95533
  390 Torsion                 14    22    34    57          63.53810
  391 Torsion                 17    10    18    25           1.94042
  392 Torsion                 17    10    18    26        -176.51699
  393 Torsion                 17    23    36    25           0.80260
  394 Torsion                 17    23    36    58        -179.36015
  395 Torsion                 17    24    38    59          55.54957
  396 Torsion                 17    24    38    60         -64.24663
  397 Torsion                 17    24    38    61         176.49258
  398 Torsion                 17    24    39    62         -57.21842
  399 Torsion                 17    24    39    63        -177.46801
  400 Torsion                 17    24    39    64          63.20985
  401 Torsion                 18    10    17    23          -2.03978
  402 Torsion                 18    10    17    24         176.16136
  403 Torsion                 18    25    36    23          -0.90603
  404 Torsion                 18    25    36    58         179.25673
  405 Torsion                 18    26    42    65          52.15945
  406 Torsion                 18    26    42    66         -68.44757
  407 Torsion                 18    26    42    67         172.91336
  408 Torsion                 18    26    43    68         -56.01203
  409 Torsion                 18    26    43    69        -177.10294
  410 Torsion                 18    26    43    70          63.63372
  411 Torsion                 19    13    20    29          67.32113
  412 Torsion                 19    13    20    30         -57.05855
  413 Torsion                 19    13    20    31        -175.22266
  414 Torsion                 19    27    21    32        -179.85076
  415 Torsion                 20    13    19    27        -176.71202
  416 Torsion                 20    13    19    28           3.30743
  417 Torsion                 21    14    22    33          55.41615
  418 Torsion                 21    14    22    34         -68.58522
  419 Torsion                 21    14    22    35         173.02615
  420 Torsion                 21    27    19    28        -179.81888
  421 Torsion                 22    14    21    27        -179.33721
  422 Torsion                 22    14    21    32          -0.81206
  423 Torsion                 23    17    24    38          66.17510
  424 Torsion                 23    17    24    39         -57.80274
  425 Torsion                 23    17    24    40        -175.75866
  426 Torsion                 23    36    25    41        -179.92302
  427 Torsion                 24    17    23    36        -177.61049
  428 Torsion                 24    17    23    37           2.54039
  429 Torsion                 25    18    26    42          48.16530
  430 Torsion                 25    18    26    43         -75.63731
  431 Torsion                 25    18    26    44         166.43892
  432 Torsion                 25    36    23    37        -179.34851
  433 Torsion                 26    18    25    36         178.04876
  434 Torsion                 26    18    25    41          -2.93419
  435 Torsion                 28    19    27    45           0.63210
  436 Torsion                 29    20    30    49        -178.85507
  437 Torsion                 29    20    30    50          60.48457
  438 Torsion                 29    20    30    51         -58.71762
  439 Torsion                 30    20    29    46        -178.87502
  440 Torsion                 30    20    29    47          61.26837
  441 Torsion                 30    20    29    48         -58.28001
  442 Torsion                 31    20    29    46         -61.28226
  443 Torsion                 31    20    29    47         178.86113
  444 Torsion                 31    20    29    48          59.31275
  445 Torsion                 31    20    30    49          63.36655
  446 Torsion                 31    20    30    50         -57.29381
  447 Torsion                 31    20    30    51        -176.49600
  448 Torsion                 32    21    27    45          -0.30178
  449 Torsion                 33    22    34    55         179.34134
  450 Torsion                 33    22    34    56          58.48444
  451 Torsion                 33    22    34    57         -61.02212
  452 Torsion                 34    22    33    52         178.26554
  453 Torsion                 34    22    33    53          57.93520
  454 Torsion                 34    22    33    54         -61.60888
  455 Torsion                 35    22    33    52         -63.78447
  456 Torsion                 35    22    33    53         175.88519
  457 Torsion                 35    22    33    54          56.34112
  458 Torsion                 35    22    34    55          62.11582
  459 Torsion                 35    22    34    56         -58.74108
  460 Torsion                 35    22    34    57        -178.24765
  461 Torsion                 37    23    36    58           0.48874
  462 Torsion                 38    24    39    62         178.74054
  463 Torsion                 38    24    39    63          58.49095
  464 Torsion                 38    24    39    64         -60.83119
  465 Torsion                 39    24    38    59        -179.43659
  466 Torsion                 39    24    38    60          60.76721
  467 Torsion                 39    24    38    61         -58.49358
  468 Torsion                 40    24    38    59         -62.44748
  469 Torsion                 40    24    38    60         177.75632
  470 Torsion                 40    24    38    61          58.49553
  471 Torsion                 40    24    39    62          61.19954
  472 Torsion                 40    24    39    63         -59.05006
  473 Torsion                 40    24    39    64        -178.37219
  474 Torsion                 41    25    36    58           0.23974
  475 Torsion                 42    26    43    68         178.65529
  476 Torsion                 42    26    43    69          57.56439
  477 Torsion                 42    26    43    70         -61.69895
  478 Torsion                 43    26    42    65         175.85578
  479 Torsion                 43    26    42    66          55.24876
  480 Torsion                 43    26    42    67         -63.39032
  481 Torsion                 44    26    42    65         -66.47876
  482 Torsion                 44    26    42    66         172.91422
  483 Torsion                 44    26    42    67          54.27514
  484 Torsion                 44    26    43    68          61.64448
  485 Torsion                 44    26    43    69         -59.44643
  486 Torsion                 44    26    43    70        -178.70977
  487 Torsion                 71     3     1    77         -92.44025
  488 Torsion                 71    83    84    86        -178.02415
  489 Torsion                 71    83    84    87           2.81210
  490 Torsion                 71    83    85    88         177.71823
  491 Torsion                 71    83    85    89           0.54161
  492 Torsion                 72    73    76    77           0.32873
  493 Torsion                 72    73    76    79         179.97852
  494 Torsion                 72    75    78    77          -0.13574
  495 Torsion                 72    75    78    80         179.03823
  496 Torsion                 73    72    75    74         178.99733
  497 Torsion                 73    72    75    78          -1.20471
  498 Torsion                 73    76    77    78          -1.66515
  499 Torsion                 74    75    72    81          -0.72041
  500 Torsion                 74    75    78    77         179.66239
  501 Torsion                 74    75    78    80          -1.16364
  502 Torsion                 75    72    73    76           1.10779
  503 Torsion                 75    72    73    82        -178.95396
  504 Torsion                 75    78    77    76           1.56868
  505 Torsion                 76    73    72    81        -179.17410
  506 Torsion                 76    77    78    80        -177.61894
  507 Torsion                 77    76    73    82        -179.60951
  508 Torsion                 78    75    72    81         179.07755
  509 Torsion                 78    77    76    79         178.67357
  510 Torsion                 79    76    73    82           0.04028
  511 Torsion                 81    72    73    82           0.76415
  512 Torsion                 83    71    94    95         -62.68067
  513 Torsion                 83    71    94    96          59.00037
  514 Torsion                 83    71    94    97         178.07373
  515 Torsion                 83    84    86    90           0.31044
  516 Torsion                 83    84    86    91        -179.68524
  517 Torsion                 83    85    88    90           0.44261
  518 Torsion                 83    85    88    92        -177.99634
  519 Torsion                 84    83    71    94          16.52873
  520 Torsion                 84    83    85    88          -1.06574
  521 Torsion                 84    83    85    89        -178.24237
  522 Torsion                 84    86    90    88          -0.95403
  523 Torsion                 84    86    90    93         178.34531
  524 Torsion                 85    83    71    94        -162.16491
  525 Torsion                 85    83    84    86           0.69012
  526 Torsion                 85    83    84    87        -178.47363
  527 Torsion                 85    88    90    86           0.58027
  528 Torsion                 85    88    90    93        -178.71806
  529 Torsion                 86    90    88    92         179.00929
  530 Torsion                 87    84    86    90         179.48451
  531 Torsion                 87    84    86    91          -0.51117
  532 Torsion                 88    90    86    91         179.04162
  533 Torsion                 89    85    88    90         177.56175
  534 Torsion                 89    85    88    92          -0.87720
  535 Torsion                 91    86    90    93          -1.65904
  536 Torsion                 92    88    90    93          -0.28904


            XYZ format geometry
            -------------------
    97
 geometry
 C                     1.37816060     0.84782681    -1.16492663
 O                     1.24870361     1.56959067    -2.12549380
 Ni                    0.11179947    -0.43485206    -0.81506920
 C                    -1.13515227     0.44725418     0.32140858
 N                    -2.02455417    -0.33350670     0.95795129
 N                    -1.48929770     1.71333542     0.54904665
 C                    -3.04535783     0.40253282     1.70411463
 C                    -1.94121478    -1.75924604     0.97741966
 C                    -2.74496652     1.84742072     1.29711146
 C                    -0.80844511     2.87290154     0.06382681
 H                    -4.04409113     0.07691053     1.40917404
 H                    -2.93358799     0.23364963     2.77799289
 C                    -2.53702844    -2.48392654    -0.06051238
 C                    -1.27649943    -2.38322443     2.03999355
 H                    -3.51792464     2.26898387     0.65026615
 H                    -2.61330955     2.51381459     2.14965557
 C                     0.06074269     3.53743777     0.93384681
 C                    -1.05295956     3.31376318    -1.23926091
 C                    -2.41583574    -3.86973353    -0.03598350
 C                    -3.32998755    -1.80656757    -1.16177885
 C                    -1.20049680    -3.77042882     2.03401828
 C                    -0.65426227    -1.58903247     3.17188279
 C                     0.73031314     4.65550490     0.45022665
 C                     0.25347341     3.09857938     2.37436719
 C                    -0.36324075     4.43654926    -1.67834471
 C                    -2.05774014     2.62523146    -2.14350683
 C                    -1.75326237    -4.50686943     0.99836512
 H                    -2.84581467    -4.45691698    -0.83767366
 C                    -4.81739779    -2.14825214    -1.02894121
 C                    -2.80322760    -2.16311213    -2.55184869
 H                    -3.22291722    -0.72679063    -1.03699515
 H                    -0.68233030    -4.28130061     2.83638197
 C                     0.82787081    -1.91949565     3.34902138
 C                    -1.42206614    -1.81718322     4.47667599
 H                    -0.71911296    -0.52905622     2.91647275
 C                     0.52630752     5.09590194    -0.84652485
 H                     1.42070275     5.18561194     1.09508629
 C                    -0.31758782     4.14403179     3.33774632
 C                     1.71795967     2.81192005     2.70256435
 H                    -0.29829421     2.16655663     2.51945829
 H                    -0.51128070     4.79181705    -2.69004506
 C                    -1.51673508     2.36933942    -3.55020574
 C                    -3.35193433     3.44324997    -2.21220955
 H                    -2.29066065     1.65218828    -1.70494077
 H                    -1.66001074    -5.58524765     0.99469682
 H                    -5.20509251    -1.87778221    -0.04449713
 H                    -4.98294571    -3.21880917    -1.16621264
 H                    -5.40019648    -1.61886444    -1.78480407
 H                    -1.73896066    -1.93773328    -2.63807395
 H                    -3.34588060    -1.60087277    -3.31431069
 H                    -2.93908656    -3.22548127    -2.76466544
 H                     1.37405704    -1.78818345     2.41550184
 H                     0.96826862    -2.95100398     3.67787296
 H                     1.27277793    -1.26623693     4.10200324
 H                    -2.48103435    -1.57423143     4.36930736
 H                    -1.00737346    -1.20440246     5.27904941
 H                    -1.35500018    -2.86301919     4.78365042
 H                     1.06336241     5.96231325    -1.21146124
 H                    -1.36764055     4.35956618     3.13008060
 H                     0.23238342     5.08370341     3.25487375
 H                    -0.23381814     3.79838867     4.37006899
 H                     2.13068177     2.05411008     2.03943174
 H                     1.81009208     2.45696038     3.73138371
 H                     2.32810013     3.71214769     2.60609730
 H                    -0.56050396     1.85234161    -3.50633110
 H                    -1.37819420     3.30408482    -4.09789929
 H                    -2.22896083     1.76412491    -4.11513855
 H                    -3.77741068     3.62344441    -1.22302079
 H                    -4.09844769     2.92836424    -2.82030456
 H                    -3.15947521     4.41700170    -2.66822331
 N                     0.87643677    -1.61034998    -1.99767182
 C                     4.86877187     1.21792923     1.27821470
 C                     4.57289871     2.18462808     0.32315001
 H                     4.29630774    -0.66000714     2.14734702
 C                     4.05634408     0.10024595     1.41465656
 C                     3.45254633     2.04384041    -0.47832802
 C                     2.62005331     0.93874210    -0.32272172
 C                     2.93267042    -0.03831514     0.61193072
 H                     3.19562482     2.77930628    -1.23015507
 H                     2.29674274    -0.91135300     0.69459728
 H                     5.73779811     1.33603737     1.91339493
 H                     5.21763172     3.04699618     0.20726671
 C                     1.76753408    -2.58557116    -1.57560760
 C                     2.93399704    -2.93873184    -2.27205683
 C                     1.48829789    -3.29313818    -0.39261329
 C                     3.75968960    -3.95488656    -1.80936551
 H                     3.20958309    -2.41066135    -3.17383744
 C                     2.31139726    -4.30768447     0.05627289
 H                     0.57611005    -3.05353904     0.14313914
 C                     3.45788083    -4.65613216    -0.65250924
 H                     4.65553209    -4.19898418    -2.36832547
 H                     2.04375667    -4.85106302     0.95585527
 H                     4.09389276    -5.46393452    -0.31503696
 C                     0.99318957    -1.20841099    -3.38828699
 H                     1.95724399    -0.75007761    -3.64155758
 H                     0.84581733    -2.07108778    -4.04944347
 H                     0.22657824    -0.46833324    -3.61423633

 ==============================================================================
                                internuclear distances
 ------------------------------------------------------------------------------
       center one      |      center two      | atomic units |  angstroms
 ------------------------------------------------------------------------------
    2 O                |   1 C                |     2.28367  |     1.20847
    3 Ni               |   1 C                |     3.46976  |     1.83612
    4 C                |   3 Ni               |     3.59772  |     1.90383
    5 N                |   4 C                |     2.53942  |     1.34380
    6 N                |   4 C                |     2.52135  |     1.33424
    7 C                |   5 N                |     2.76479  |     1.46306
    8 C                |   5 N                |     2.69911  |     1.42831
    9 C                |   6 N                |     2.77364  |     1.46775
    9 C                |   7 C                |     2.89294  |     1.53088
   10 C                |   6 N                |     2.70144  |     1.42954
   11 H                |   7 C                |     2.06187  |     1.09109
   12 H                |   7 C                |     2.06511  |     1.09281
   13 C                |   8 C                |     2.64390  |     1.39909
   14 C                |   8 C                |     2.64579  |     1.40009
   15 H                |   9 C                |     2.06455  |     1.09251
   16 H                |   9 C                |     2.05993  |     1.09007
   17 C                |  10 C                |     2.64158  |     1.39787
   18 C                |  10 C                |     2.64034  |     1.39721
   19 C                |  13 C                |     2.62920  |     1.39131
   20 C                |  13 C                |     2.86615  |     1.51670
   21 C                |  14 C                |     2.62539  |     1.38930
   22 C                |  14 C                |     2.86535  |     1.51628
   23 C                |  17 C                |     2.62685  |     1.39007
   24 C                |  17 C                |     2.86893  |     1.51817
   25 C                |  18 C                |     2.62472  |     1.38894
   26 C                |  18 C                |     2.86673  |     1.51701
   27 C                |  19 C                |     2.61495  |     1.38377
   27 C                |  21 C                |     2.61880  |     1.38581
   28 H                |  19 C                |     2.04612  |     1.08276
   29 C                |  20 C                |     2.89491  |     1.53192
   30 C                |  20 C                |     2.88881  |     1.52869
   31 H                |  20 C                |     2.06400  |     1.09222
   32 H                |  21 C                |     2.04691  |     1.08318
   33 C                |  22 C                |     2.88906  |     1.52882
   34 C                |  22 C                |     2.89323  |     1.53103
   35 H                |  22 C                |     2.06404  |     1.09224
   36 C                |  23 C                |     2.61652  |     1.38461
   36 C                |  25 C                |     2.61709  |     1.38491
   37 H                |  23 C                |     2.04710  |     1.08328
   38 C                |  24 C                |     2.89516  |     1.53205
   39 C                |  24 C                |     2.88739  |     1.52794
   40 H                |  24 C                |     2.06505  |     1.09278
   41 H                |  25 C                |     2.04551  |     1.08244
   42 C                |  26 C                |     2.88885  |     1.52871
   43 C                |  26 C                |     2.89616  |     1.53258
   44 H                |  26 C                |     2.06439  |     1.09243
   45 H                |  27 C                |     2.04546  |     1.08241
   46 H                |  29 C                |     2.06369  |     1.09206
   47 H                |  29 C                |     2.06348  |     1.09194
   48 H                |  29 C                |     2.06252  |     1.09144
   49 H                |  30 C                |     2.06222  |     1.09128
   50 H                |  30 C                |     2.06312  |     1.09176
   51 H                |  30 C                |     2.06351  |     1.09196
   52 H                |  33 C                |     2.05887  |     1.08950
   53 H                |  33 C                |     2.06306  |     1.09173
   54 H                |  33 C                |     2.06289  |     1.09164
   55 H                |  34 C                |     2.06315  |     1.09177
   56 H                |  34 C                |     2.06255  |     1.09145
   57 H                |  34 C                |     2.06362  |     1.09202
   58 H                |  36 C                |     2.04604  |     1.08272
   59 H                |  38 C                |     2.06334  |     1.09187
   60 H                |  38 C                |     2.06346  |     1.09193
   61 H                |  38 C                |     2.06333  |     1.09187
   62 H                |  39 C                |     2.05656  |     1.08828
   63 H                |  39 C                |     2.06400  |     1.09222
   64 H                |  39 C                |     2.06317  |     1.09178
   65 H                |  42 C                |     2.05589  |     1.08793
   66 H                |  42 C                |     2.06397  |     1.09220
   67 H                |  42 C                |     2.06378  |     1.09211
   68 H                |  43 C                |     2.06317  |     1.09179
   69 H                |  43 C                |     2.06333  |     1.09186
   70 H                |  43 C                |     2.06420  |     1.09233
   71 N                |   3 Ni               |     3.46651  |     1.83440
   73 C                |  72 C                |     2.62814  |     1.39075
   75 C                |  72 C                |     2.62384  |     1.38848
   75 C                |  74 H                |     2.04615  |     1.08278
   76 C                |  73 C                |     2.61669  |     1.38469
   77 C                |   1 C                |     2.84080  |     1.50329
   77 C                |  76 C                |     2.63107  |     1.39230
   78 C                |  75 C                |     2.62271  |     1.38788
   78 C                |  77 C                |     2.62253  |     1.38778
   79 H                |  76 C                |     2.04594  |     1.08266
   80 H                |  78 C                |     2.04705  |     1.08325
   81 H                |  72 C                |     2.04633  |     1.08287
   82 H                |  73 C                |     2.04649  |     1.08295
   83 C                |  71 N                |     2.62070  |     1.38681
   84 C                |  83 C                |     2.65263  |     1.40371
   85 C                |  83 C                |     2.65780  |     1.40645
   86 C                |  84 C                |     2.62422  |     1.38868
   87 H                |  84 C                |     2.04232  |     1.08075
   88 C                |  85 C                |     2.61049  |     1.38141
   89 H                |  85 C                |     2.04974  |     1.08468
   90 C                |  86 C                |     2.61927  |     1.38606
   90 C                |  88 C                |     2.63087  |     1.39220
   91 H                |  86 C                |     2.04803  |     1.08377
   92 H                |  88 C                |     2.04941  |     1.08450
   93 H                |  90 C                |     2.04488  |     1.08210
   94 C                |  71 N                |     2.74433  |     1.45224
   95 H                |  94 C                |     2.07321  |     1.09709
   96 H                |  94 C                |     2.07273  |     1.09684
   97 H                |  94 C                |     2.05838  |     1.08925
 ------------------------------------------------------------------------------
                         number of included internuclear distances:        101
 ==============================================================================



 ==============================================================================
                                 internuclear angles
 ------------------------------------------------------------------------------
        center 1       |       center 2       |       center 3       |  degrees
 ------------------------------------------------------------------------------
    2 O                |   1 C                |   3 Ni               |   119.66
    2 O                |   1 C                |  77 C                |   119.85
    3 Ni               |   1 C                |  77 C                |   120.35
    1 C                |   3 Ni               |   4 C                |   103.99
    1 C                |   3 Ni               |  71 N                |    92.14
    4 C                |   3 Ni               |  71 N                |   162.70
    3 Ni               |   4 C                |   5 N                |   116.56
    3 Ni               |   4 C                |   6 N                |   135.67
    5 N                |   4 C                |   6 N                |   107.15
    4 C                |   5 N                |   7 C                |   114.27
    4 C                |   5 N                |   8 C                |   123.22
    7 C                |   5 N                |   8 C                |   122.41
    4 C                |   6 N                |   9 C                |   113.62
    4 C                |   6 N                |  10 C                |   125.83
    9 C                |   6 N                |  10 C                |   120.42
    5 N                |   7 C                |   9 C                |   101.67
    5 N                |   7 C                |  11 H                |   110.53
    5 N                |   7 C                |  12 H                |   110.61
    9 C                |   7 C                |  11 H                |   112.92
    9 C                |   7 C                |  12 H                |   112.77
   11 H                |   7 C                |  12 H                |   108.25
    5 N                |   8 C                |  13 C                |   118.82
    5 N                |   8 C                |  14 C                |   118.88
   13 C                |   8 C                |  14 C                |   122.30
    6 N                |   9 C                |   7 C                |   102.54
    6 N                |   9 C                |  15 H                |   109.80
    6 N                |   9 C                |  16 H                |   110.56
    7 C                |   9 C                |  15 H                |   112.51
    7 C                |   9 C                |  16 H                |   113.13
   15 H                |   9 C                |  16 H                |   108.22
    6 N                |  10 C                |  17 C                |   118.07
    6 N                |  10 C                |  18 C                |   119.28
   17 C                |  10 C                |  18 C                |   122.63
    8 C                |  13 C                |  19 C                |   117.76
    8 C                |  13 C                |  20 C                |   122.00
   19 C                |  13 C                |  20 C                |   120.21
    8 C                |  14 C                |  21 C                |   117.89
    8 C                |  14 C                |  22 C                |   121.87
   21 C                |  14 C                |  22 C                |   120.25
   10 C                |  17 C                |  23 C                |   117.73
   10 C                |  17 C                |  24 C                |   122.15
   23 C                |  17 C                |  24 C                |   120.10
   10 C                |  18 C                |  25 C                |   117.58
   10 C                |  18 C                |  26 C                |   121.91
   25 C                |  18 C                |  26 C                |   120.49
   13 C                |  19 C                |  27 C                |   120.90
   13 C                |  19 C                |  28 H                |   119.51
   27 C                |  19 C                |  28 H                |   119.60
   13 C                |  20 C                |  29 C                |   110.19
   13 C                |  20 C                |  30 C                |   112.08
   13 C                |  20 C                |  31 H                |   107.90
   29 C                |  20 C                |  30 C                |   111.19
   29 C                |  20 C                |  31 H                |   107.80
   30 C                |  20 C                |  31 H                |   107.50
   14 C                |  21 C                |  27 C                |   120.80
   14 C                |  21 C                |  32 H                |   119.60
   27 C                |  21 C                |  32 H                |   119.59
   14 C                |  22 C                |  33 C                |   111.78
   14 C                |  22 C                |  34 C                |   110.63
   14 C                |  22 C                |  35 H                |   108.02
   33 C                |  22 C                |  34 C                |   110.81
   33 C                |  22 C                |  35 H                |   107.12
   34 C                |  22 C                |  35 H                |   108.31
   17 C                |  23 C                |  36 C                |   120.71
   17 C                |  23 C                |  37 H                |   119.57
   36 C                |  23 C                |  37 H                |   119.72
   17 C                |  24 C                |  38 C                |   110.61
   17 C                |  24 C                |  39 C                |   112.32
   17 C                |  24 C                |  40 H                |   107.96
   38 C                |  24 C                |  39 C                |   110.50
   38 C                |  24 C                |  40 H                |   108.08
   39 C                |  24 C                |  40 H                |   107.18
   18 C                |  25 C                |  36 C                |   120.93
   18 C                |  25 C                |  41 H                |   119.53
   36 C                |  25 C                |  41 H                |   119.54
   18 C                |  26 C                |  42 C                |   112.96
   18 C                |  26 C                |  43 C                |   110.11
   18 C                |  26 C                |  44 H                |   107.83
   42 C                |  26 C                |  43 C                |   110.30
   42 C                |  26 C                |  44 H                |   107.20
   43 C                |  26 C                |  44 H                |   108.26
   19 C                |  27 C                |  21 C                |   120.33
   19 C                |  27 C                |  45 H                |   119.83
   21 C                |  27 C                |  45 H                |   119.84
   20 C                |  29 C                |  46 H                |   111.57
   20 C                |  29 C                |  47 H                |   110.79
   20 C                |  29 C                |  48 H                |   110.50
   46 H                |  29 C                |  47 H                |   107.60
   46 H                |  29 C                |  48 H                |   108.34
   47 H                |  29 C                |  48 H                |   107.91
   20 C                |  30 C                |  49 H                |   111.08
   20 C                |  30 C                |  50 H                |   110.10
   20 C                |  30 C                |  51 H                |   111.18
   49 H                |  30 C                |  50 H                |   108.86
   49 H                |  30 C                |  51 H                |   107.87
   50 H                |  30 C                |  51 H                |   107.64
   22 C                |  33 C                |  52 H                |   111.14
   22 C                |  33 C                |  53 H                |   111.33
   22 C                |  33 C                |  54 H                |   110.22
   52 H                |  33 C                |  53 H                |   107.91
   52 H                |  33 C                |  54 H                |   108.34
   53 H                |  33 C                |  54 H                |   107.77
   22 C                |  34 C                |  55 H                |   111.68
   22 C                |  34 C                |  56 H                |   110.63
   22 C                |  34 C                |  57 H                |   110.58
   55 H                |  34 C                |  56 H                |   108.41
   55 H                |  34 C                |  57 H                |   107.48
   56 H                |  34 C                |  57 H                |   107.92
   23 C                |  36 C                |  25 C                |   120.38
   23 C                |  36 C                |  58 H                |   119.81
   25 C                |  36 C                |  58 H                |   119.81
   24 C                |  38 C                |  59 H                |   111.94
   24 C                |  38 C                |  60 H                |   110.60
   24 C                |  38 C                |  61 H                |   110.48
   59 H                |  38 C                |  60 H                |   107.46
   59 H                |  38 C                |  61 H                |   108.43
   60 H                |  38 C                |  61 H                |   107.79
   24 C                |  39 C                |  62 H                |   111.30
   24 C                |  39 C                |  63 H                |   110.13
   24 C                |  39 C                |  64 H                |   111.22
   62 H                |  39 C                |  63 H                |   108.40
   62 H                |  39 C                |  64 H                |   107.96
   63 H                |  39 C                |  64 H                |   107.70
   26 C                |  42 C                |  65 H                |   110.70
   26 C                |  42 C                |  66 H                |   111.29
   26 C                |  42 C                |  67 H                |   109.75
   65 H                |  42 C                |  66 H                |   108.39
   65 H                |  42 C                |  67 H                |   109.31
   66 H                |  42 C                |  67 H                |   107.31
   26 C                |  43 C                |  68 H                |   112.12
   26 C                |  43 C                |  69 H                |   110.53
   26 C                |  43 C                |  70 H                |   110.23
   68 H                |  43 C                |  69 H                |   108.42
   68 H                |  43 C                |  70 H                |   107.44
   69 H                |  43 C                |  70 H                |   107.96
    3 Ni               |  71 N                |  83 C                |   121.48
    3 Ni               |  71 N                |  94 C                |   118.26
   83 C                |  71 N                |  94 C                |   115.75
   73 C                |  72 C                |  75 C                |   120.17
   73 C                |  72 C                |  81 H                |   119.85
   75 C                |  72 C                |  81 H                |   119.98
   72 C                |  73 C                |  76 C                |   119.93
   72 C                |  73 C                |  82 H                |   120.02
   76 C                |  73 C                |  82 H                |   120.05
   72 C                |  75 C                |  74 H                |   120.13
   72 C                |  75 C                |  78 C                |   119.82
   74 H                |  75 C                |  78 C                |   120.05
   73 C                |  76 C                |  77 C                |   119.99
   73 C                |  76 C                |  79 H                |   121.66
   77 C                |  76 C                |  79 H                |   118.35
    1 C                |  77 C                |  76 C                |   118.64
    1 C                |  77 C                |  78 C                |   121.39
   76 C                |  77 C                |  78 C                |   119.96
   75 C                |  78 C                |  77 C                |   120.11
   75 C                |  78 C                |  80 H                |   120.77
   77 C                |  78 C                |  80 H                |   119.12
   71 N                |  83 C                |  84 C                |   124.05
   71 N                |  83 C                |  85 C                |   118.83
   84 C                |  83 C                |  85 C                |   117.11
   83 C                |  84 C                |  86 C                |   120.86
   83 C                |  84 C                |  87 H                |   120.20
   86 C                |  84 C                |  87 H                |   118.94
   83 C                |  85 C                |  88 C                |   121.63
   83 C                |  85 C                |  89 H                |   118.12
   88 C                |  85 C                |  89 H                |   120.19
   84 C                |  86 C                |  90 C                |   121.25
   84 C                |  86 C                |  91 H                |   118.98
   90 C                |  86 C                |  91 H                |   119.77
   85 C                |  88 C                |  90 C                |   120.60
   85 C                |  88 C                |  92 H                |   119.37
   90 C                |  88 C                |  92 H                |   120.01
   86 C                |  90 C                |  88 C                |   118.53
   86 C                |  90 C                |  93 H                |   120.66
   88 C                |  90 C                |  93 H                |   120.80
   71 N                |  94 C                |  95 H                |   114.04
   71 N                |  94 C                |  96 H                |   110.41
   71 N                |  94 C                |  97 H                |   109.27
   95 H                |  94 C                |  96 H                |   107.91
   95 H                |  94 C                |  97 H                |   106.66
   96 H                |  94 C                |  97 H                |   108.35
 ------------------------------------------------------------------------------
                            number of included internuclear angles:        180
 ==============================================================================



                      Basis "ao basis" -> "" (cartesian)
                      -----
  C (Carbon)
  ----------
            Exponent  Coefficients 
       -------------- ---------------------------------------------------------
  1 S  8.50603840E+03  0.000534
  1 S  1.27573290E+03  0.004125
  1 S  2.90311870E+02  0.021171
  1 S  8.20562000E+01  0.082418
  1 S  2.64796410E+01  0.240129

  2 S  9.24145850E+00  1.000000

  3 S  3.36435300E+00  1.000000

  4 S  8.71741640E-01  1.000000

  5 S  3.63523520E-01  1.000000

  6 S  1.28731350E-01  1.000000

  7 P  3.47094960E+01  0.005330
  7 P  7.95908830E+00  0.035866
  7 P  2.37869720E+00  0.142003
  7 P  8.15400650E-01  0.342031

  8 P  2.89537850E-01  1.000000

  9 P  1.00847540E-01  1.000000

  H (Hydrogen)
  ------------
            Exponent  Coefficients 
       -------------- ---------------------------------------------------------
  1 S  3.40613410E+01  0.006025
  1 S  5.12357460E+00  0.045021
  1 S  1.16466260E+00  0.201897

  2 S  3.27230410E-01  1.000000

  3 S  1.03072410E-01  1.000000

  O (Oxygen)
  ----------
            Exponent  Coefficients 
       -------------- ---------------------------------------------------------
  1 S  1.59026475E+04  0.000515
  1 S  2.38495378E+03  0.003982
  1 S  5.42719572E+02  0.020477
  1 S  1.53404079E+02  0.080262
  1 S  4.95457161E+01  0.237668

  2 S  1.73396499E+01  1.000000

  3 S  6.33033553E+00  1.000000

  4 S  1.69958822E+00  1.000000

  5 S  6.89544913E-01  1.000000

  6 S  2.39360282E-01  1.000000

  7 P  6.32705240E+01  0.006071
  7 P  1.46233123E+01  0.041948
  7 P  4.44895180E+00  0.161569
[...]
  ----- ------------  ---------------      ----- ------------  ---------------
   739      1.070108  83 C  s               682     -0.976878  76 C  s         
   716      0.972942  78 C  s               743      0.976340  83 C  s         
   712      0.956766  78 C  s               236     -0.915527  18 C  s         
   686     -0.913474  76 C  s               356      0.851831  26 C  s         
   352      0.833382  26 C  s               740     -0.835015  83 C  s         

 Vector  847  Occ=0.000000D+00  E= 6.331229D+01
              MO Center=  1.5D+00,  8.7D-01,  7.1D-01, r^2= 9.2D+00
   Bfn.  Coefficient  Atom+Function         Bfn.  Coefficient  Atom+Function  
  ----- ------------  ---------------      ----- ------------  ---------------
   716     -1.415422  78 C  s                 6      1.391754   1 C  s         
   712     -1.365032  78 C  s               701     -1.209259  77 C  s         
   326     -1.090678  24 C  s               713      1.066608  78 C  s         
   322     -1.024633  24 C  s               697     -1.010921  77 C  s         
   296      1.004103  22 C  s                 2      0.987954   1 C  s         

 Vector  848  Occ=0.000000D+00  E= 6.332672D+01
              MO Center=  2.4D+00, -5.1D-01, -2.9D-01, r^2= 9.9D+00
   Bfn.  Coefficient  Atom+Function         Bfn.  Coefficient  Atom+Function  
  ----- ------------  ---------------      ----- ------------  ---------------
   739      1.272385  83 C  s               743      1.186298  83 C  s         
   686      1.166225  76 C  s               712     -1.079505  78 C  s         
   701      1.073129  77 C  s               716     -1.051727  78 C  s         
   697      1.007410  77 C  s               740     -0.993588  83 C  s         
   682      0.985434  76 C  s               802     -0.940228  88 C  s         

 Vector  849  Occ=0.000000D+00  E= 6.333955D+01
              MO Center= -8.8D-01,  3.7D-01, -2.6D-01, r^2= 1.5D+01
   Bfn.  Coefficient  Atom+Function         Bfn.  Coefficient  Atom+Function  
  ----- ------------  ---------------      ----- ------------  ---------------
   266      1.364204  20 C  s               356     -1.356782  26 C  s         
   352     -1.250241  26 C  s               262      1.173395  20 C  s         
   142      1.107771   8 C  py              326     -1.045192  24 C  s         
   322     -1.023835  24 C  s               236      1.011976  18 C  s         
   353      0.978153  26 C  s                 6     -0.923993   1 C  s         

 Vector  850  Occ=0.000000D+00  E= 6.335402D+01
              MO Center=  1.9D+00, -2.9D+00, -1.1D+00, r^2= 5.3D+00
   Bfn.  Coefficient  Atom+Function         Bfn.  Coefficient  Atom+Function  
  ----- ------------  ---------------      ----- ------------  ---------------
   773      1.940186  85 C  s               769      1.929443  85 C  s         
   770     -1.504683  85 C  s               758     -1.368776  84 C  s         
   754     -1.307918  84 C  s               772     -1.173809  85 C  s         
   768     -1.131240  85 C  s               771      1.124506  85 C  s         
   784      1.042216  86 C  s               755      1.020612  84 C  s         

 Vector  851  Occ=0.000000D+00  E= 6.340766D+01
              MO Center= -1.3D+00, -2.8D-01,  5.0D-01, r^2= 1.2D+01
   Bfn.  Coefficient  Atom+Function         Bfn.  Coefficient  Atom+Function  
  ----- ------------  ---------------      ----- ------------  ---------------
   185      2.018585  13 C  s               143      1.649980   8 C  pz        
   200     -1.616128  14 C  s               181      1.456068  13 C  s         
   221     -1.373844  17 C  s               196     -1.336321  14 C  s         
   173      1.252576  10 C  pz              236      1.177818  18 C  s         
   182     -1.146098  13 C  s               194      1.130210  13 C  pz        

 Vector  852  Occ=0.000000D+00  E= 6.342174D+01
              MO Center= -1.8D+00, -2.3D+00,  9.2D-01, r^2= 5.1D+00
   Bfn.  Coefficient  Atom+Function         Bfn.  Coefficient  Atom+Function  
  ----- ------------  ---------------      ----- ------------  ---------------
   134      3.026224   8 C  s               130      1.817777   8 C  s         
   209      1.586843  14 C  pz              200     -1.463109  14 C  s         
   131     -1.433677   8 C  s               142     -1.374277   8 C  py        
   133     -1.291064   8 C  s               281     -1.229258  21 C  s         
   251     -1.216759  19 C  s               247     -1.155363  19 C  s         

 Vector  853  Occ=0.000000D+00  E= 6.342362D+01
              MO Center= -1.1D+00,  1.4D+00,  3.2D-02, r^2= 1.3D+01
   Bfn.  Coefficient  Atom+Function         Bfn.  Coefficient  Atom+Function  
  ----- ------------  ---------------      ----- ------------  ---------------
   245      1.732996  18 C  pz              236      1.603997  18 C  s         
   173      1.595515  10 C  pz              164     -1.380985  10 C  s         
   356      1.226257  26 C  s               232      1.174848  18 C  s         
   185     -1.117491  13 C  s               194     -1.107025  13 C  pz        
   134      0.966949   8 C  s               143     -0.957914   8 C  pz        

 Vector  854  Occ=0.000000D+00  E= 6.344224D+01
              MO Center= -4.7D-01,  2.9D+00, -2.3D-01, r^2= 6.4D+00
   Bfn.  Coefficient  Atom+Function         Bfn.  Coefficient  Atom+Function  
  ----- ------------  ---------------      ----- ------------  ---------------
   164      2.834911  10 C  s               160      1.775720  10 C  s         
   221     -1.441526  17 C  s               161     -1.402373  10 C  s         
   230      1.285856  17 C  pz              163     -1.263004  10 C  s         
   311     -1.194905  23 C  s               341     -1.155713  25 C  s         
   172      1.142541  10 C  py              162      1.108114  10 C  s         

 Vector  855  Occ=0.000000D+00  E= 6.355692D+01
              MO Center=  3.0D+00, -8.8D-01, -1.3D-01, r^2= 9.0D+00
   Bfn.  Coefficient  Atom+Function         Bfn.  Coefficient  Atom+Function  
  ----- ------------  ---------------      ----- ------------  ---------------
   701      2.100374  77 C  s               716     -2.031565  78 C  s         
   671      1.900908  75 C  s               686     -1.845104  76 C  s         
   653      1.792751  73 C  s               638     -1.734354  72 C  s         
   743     -1.448117  83 C  s               773      1.441327  85 C  s         
   806     -1.421500  88 C  s               824      1.401533  90 C  s         

 Vector  856  Occ=0.000000D+00  E= 6.356755D+01
              MO Center=  2.9D+00, -1.7D+00, -5.1D-01, r^2= 8.2D+00
   Bfn.  Coefficient  Atom+Function         Bfn.  Coefficient  Atom+Function  
  ----- ------------  ---------------      ----- ------------  ---------------
   743      2.163292  83 C  s               773     -1.948413  85 C  s         
   716     -1.843842  78 C  s               806      1.852606  88 C  s         
   824     -1.796717  90 C  s               758     -1.784625  84 C  s         
   788      1.773200  86 C  s               701      1.737810  77 C  s         
   653      1.476434  73 C  s               671      1.479750  75 C  s         

 Vector  857  Occ=0.000000D+00  E= 6.359215D+01
              MO Center= -1.7D+00, -2.7D+00,  9.6D-01, r^2= 3.4D+00
   Bfn.  Coefficient  Atom+Function         Bfn.  Coefficient  Atom+Function  
  ----- ------------  ---------------      ----- ------------  ---------------
   134      3.550948   8 C  s               185     -3.068241  13 C  s         
   200     -2.978869  14 C  s               281      2.751313  21 C  s         
   251      2.633845  19 C  s               371     -2.506855  27 C  s         
   142     -2.324997   8 C  py              194     -1.679993  13 C  pz        
   209      1.633158  14 C  pz              130      1.368751   8 C  s         

 Vector  858  Occ=0.000000D+00  E= 6.360067D+01
              MO Center= -3.0D-01,  3.6D+00, -2.9D-01, r^2= 3.0D+00
   Bfn.  Coefficient  Atom+Function         Bfn.  Coefficient  Atom+Function  
  ----- ------------  ---------------      ----- ------------  ---------------
   164      3.675341  10 C  s               236     -3.135218  18 C  s         
   221     -2.976536  17 C  s               311      2.663862  23 C  s         
   341      2.672106  25 C  s               458     -2.503305  36 C  s         
   230      2.106852  17 C  pz              172      1.943906  10 C  py        
   243     -1.527375  18 C  px              350      1.506726  25 C  pz        

 Vector  859  Occ=0.000000D+00  E= 8.881704D+01
              MO Center= -1.6D+00,  2.6D-01,  6.0D-01, r^2= 2.4D+00
   Bfn.  Coefficient  Atom+Function         Bfn.  Coefficient  Atom+Function  
  ----- ------------  ---------------      ----- ------------  ---------------
    85      2.293410   5 N  s               142     -1.991998   8 C  py        
    86     -1.786685   5 N  s               100     -1.735267   6 N  s         
    89      1.624133   5 N  s                84      1.346902   5 N  s         
   101      1.351767   6 N  s               172     -1.326683  10 C  py        
   104     -1.282511   6 N  s                87      1.264186   5 N  s         

 Vector  860  Occ=0.000000D+00  E= 8.886285D+01
              MO Center= -8.4D-01,  4.2D-01, -1.7D-01, r^2= 5.1D+00
   Bfn.  Coefficient  Atom+Function         Bfn.  Coefficient  Atom+Function  
  ----- ------------  ---------------      ----- ------------  ---------------
   100      2.233566   6 N  s               101     -1.744747   6 N  s         
   619      1.647471  71 N  s               104      1.576468   6 N  s         
    99      1.310450   6 N  s               620     -1.280439  71 N  s         
   102      1.248527   6 N  s               103     -1.212324   6 N  s         
   172      1.122627  10 C  py               85      1.108670   5 N  s         

 Vector  861  Occ=0.000000D+00  E= 8.886894D+01
              MO Center= -1.6D-01, -9.1D-01, -9.2D-01, r^2= 4.9D+00
   Bfn.  Coefficient  Atom+Function         Bfn.  Coefficient  Atom+Function  
  ----- ------------  ---------------      ----- ------------  ---------------
   619      2.353636  71 N  s               620     -1.829958  71 N  s         
    85     -1.563334   5 N  s               623      1.441584  71 N  s         
   618      1.383352  71 N  s               621      1.283110  71 N  s         
    86      1.221629   5 N  s               622     -1.208298  71 N  s         
    89     -1.154798   5 N  s               100     -0.968465   6 N  s         

 Vector  862  Occ=0.000000D+00  E= 1.171409D+02
              MO Center=  1.1D-01, -4.3D-01, -8.2D-01, r^2= 3.8D-02
   Bfn.  Coefficient  Atom+Function         Bfn.  Coefficient  Atom+Function  
  ----- ------------  ---------------      ----- ------------  ---------------
    38      0.896654   3 Ni pz               36      0.436060   3 Ni px        
    37     -0.373767   3 Ni py               41     -0.342483   3 Ni pz        
    45     -0.321891   3 Ni px               35     -0.291447   3 Ni s         
   725     -0.257474  78 C  pz              731      0.237880  80 H  s         
   671      0.211392  75 C  s               236      0.191758  18 C  s         

 Vector  863  Occ=0.000000D+00  E= 1.172239D+02
              MO Center=  1.1D-01, -4.3D-01, -8.2D-01, r^2= 3.5D-02
   Bfn.  Coefficient  Atom+Function         Bfn.  Coefficient  Atom+Function  
  ----- ------------  ---------------      ----- ------------  ---------------
    37      0.993163   3 Ni py               40     -0.385147   3 Ni py        
   172     -0.311396  10 C  py              142      0.306767   8 C  py        
    38      0.290291   3 Ni pz               74     -0.276418   4 C  s         
    36      0.255408   3 Ni px              686      0.252196  76 C  s         
   709     -0.250675  77 C  py                6     -0.240625   1 C  s         

 Vector  864  Occ=0.000000D+00  E= 1.172573D+02
              MO Center=  1.1D-01, -4.3D-01, -8.1D-01, r^2= 3.4D-02
   Bfn.  Coefficient  Atom+Function         Bfn.  Coefficient  Atom+Function  
  ----- ------------  ---------------      ----- ------------  ---------------
    36      0.938535   3 Ni px               38     -0.496514   3 Ni pz        
    35     -0.486586   3 Ni s                39     -0.366136   3 Ni px        
   686      0.245322  76 C  s                82     -0.228260   4 C  py        
    81      0.221797   4 C  px              709     -0.219930  77 C  py        
   134     -0.210989   8 C  s                42      0.208668   3 Ni px        

 Vector  865  Occ=0.000000D+00  E= 1.186733D+02
              MO Center=  1.2D+00,  1.6D+00, -2.1D+00, r^2= 5.9D-02
   Bfn.  Coefficient  Atom+Function         Bfn.  Coefficient  Atom+Function  
  ----- ------------  ---------------      ----- ------------  ---------------
    17      2.979052   2 O  s                18     -2.299967   2 O  s         
    16     -1.757190   2 O  s                19      1.514135   2 O  s         
    20     -1.251065   2 O  s                21      1.036033   2 O  s         
     6     -0.633804   1 C  s                34     -0.507497   3 Ni s         
    14     -0.503036   1 C  py               15      0.355262   1 C  pz        

 Vector  866  Occ=0.000000D+00  E= 6.702785D+02
              MO Center=  1.1D-01, -4.3D-01, -8.2D-01, r^2= 2.5D-02
   Bfn.  Coefficient  Atom+Function         Bfn.  Coefficient  Atom+Function  
  ----- ------------  ---------------      ----- ------------  ---------------
    32     28.683979   3 Ni s                33    -15.125209   3 Ni s         
    51     -7.282317   3 Ni dxx              54     -7.281993   3 Ni dyy       
    56     -7.282923   3 Ni dzz              31     -4.261380   3 Ni s         
    57      3.299780   3 Ni dxx              60      3.298725   3 Ni dyy       
    62      3.301926   3 Ni dzz              34      0.892115   3 Ni s         


 center of mass
 --------------
 x =   0.05644626 y =  -0.01899689 z =  -0.03620947

 moments of inertia (a.u.)
 ------------------
       25266.383671876240           0.000000000000           0.000000000000
           0.000000000000       20762.766866724734           0.000000000001
           0.000000000000           0.000000000001       29401.728019737588

     Multipole analysis of the density
     ---------------------------------

     L   x y z        total         alpha         beta         nuclear
     -   - - -        -----         -----         ----         -------
     0   0 0 0      0.000000   -172.000000   -172.000000    344.000000

     1   1 0 0     -1.772280      0.170212      0.170212     -2.112704
     1   0 1 0      0.832836     -3.692338     -3.692338      8.217512
     1   0 0 1      1.932139     -6.735218     -6.735218     15.402575

     2   2 0 0   -206.322468  -3577.011135  -3577.011135   6947.699801
     2   1 1 0      5.061807      2.443698      2.443698      0.174411
     2   1 0 1      3.348879    -46.858913    -46.858913     97.066705
     2   0 2 0   -212.119137  -4771.678136  -4771.678136   9331.237135
     2   0 1 1     -2.549778      3.207125      3.207125     -8.964028
     2   0 0 2   -211.241559  -2513.251692  -2513.251692   4815.261825


 Task  times  cpu:     1595.3s     wall:     1595.3s


                                NWChem Input Module
                                -------------------


 Summary of allocated global arrays
-----------------------------------
  No active global arrays


MA_summarize_allocated_blocks: starting scan ...
heap block 'gridpts', handle 115, address 0x564d986855a0:
	type of elements:		double precision
	number of elements:		203677164
	address of client space:	0x564d98685600
	index for client space:		142221211
	total number of bytes:		1629417416
MA_summarize_allocated_blocks: scan completed: 1 heap block, 0 stack blocks
MA usage statistics:

	allocation statistics:
					      heap	     stack
					      ----	     -----
	current number of blocks	         1	         0
	maximum number of blocks	        37	        58
	current total bytes		1629417416	         0
	maximum total bytes		1649038120	  55746920
	maximum total K-bytes		   1649039	     55747
	maximum total M-bytes		      1650	        56


                                     CITATION
                                     --------
                Please cite the following reference when publishing
                           results obtained with NWChem:

          E. Apra, E. J. Bylaska, W. A. de Jong, N. Govind, K. Kowalski,
       T. P. Straatsma, M. Valiev, H. J. J. van Dam, Y. Alexeev, J. Anchell,
       V. Anisimov, F. W. Aquino, R. Atta-Fynn, J. Autschbach, N. P. Bauman,
     J. C. Becca, D. E. Bernholdt, K. Bhaskaran-Nair, S. Bogatko, P. Borowski,
         J. Boschen, J. Brabec, A. Bruner, E. Cauet, Y. Chen, G. N. Chuev,
      C. J. Cramer, J. Daily, M. J. O. Deegan, T. H. Dunning Jr., M. Dupuis,
   K. G. Dyall, G. I. Fann, S. A. Fischer, A. Fonari, H. Fruchtl, L. Gagliardi,
      J. Garza, N. Gawande, S. Ghosh, K. Glaesemann, A. W. Gotz, J. Hammond,
       V. Helms, E. D. Hermes, K. Hirao, S. Hirata, M. Jacquelin, L. Jensen,
   B. G. Johnson, H. Jonsson, R. A. Kendall, M. Klemm, R. Kobayashi, V. Konkov,
      S. Krishnamoorthy, M. Krishnan, Z. Lin, R. D. Lins, R. J. Littlefield,
      A. J. Logsdail, K. Lopata, W. Ma, A. V. Marenich, J. Martin del Campo,
   D. Mejia-Rodriguez, J. E. Moore, J. M. Mullin, T. Nakajima, D. R. Nascimento,
    J. A. Nichols, P. J. Nichols, J. Nieplocha, A. Otero-de-la-Roza, B. Palmer,
    A. Panyala, T. Pirojsirikul, B. Peng, R. Peverati, J. Pittner, L. Pollack,
   R. M. Richard, P. Sadayappan, G. C. Schatz, W. A. Shelton, D. W. Silverstein,
   D. M. A. Smith, T. A. Soares, D. Song, M. Swart, H. L. Taylor, G. S. Thomas,
            V. Tipparaju, D. G. Truhlar, K. Tsemekhman, T. Van Voorhis,
      A. Vazquez-Mayagoitia, P. Verma, O. Villa, A. Vishnu, K. D. Vogiatzis,
        D. Wang, J. H. Weare, M. J. Williamson, T. L. Windus, K. Wolinski,
        A. T. Wong, Q. Wu, C. Yang, Q. Yu, M. Zacharias, Z. Zhang, Y. Zhao,
                                and R. J. Harrison
                        "NWChem: Past, present, and future
                         J. Chem. Phys. 152, 184102 (2020)
                               doi:10.1063/5.0004997

                                      AUTHORS
                                      -------
  E. Apra, E. J. Bylaska, N. Govind, K. Kowalski, M. Valiev, D. Mejia-Rodriguez,
       A. Kunitsa, N. P. Bauman, A. Panyala, W. A. de Jong, T. P. Straatsma,
   H. J. J. van Dam, D. Wang, T. L. Windus, J. Hammond, J. Autschbach, A. Woods,
    K. Bhaskaran-Nair, J. Brabec, K. Lopata, S. A. Fischer, S. Krishnamoorthy,
     M. Jacquelin, W. Ma, M. Klemm, O. Villa, Y. Chen, V. Anisimov, F. Aquino,
     S. Hirata, M. T. Hackler, E. Hermes, L. Jensen, J. E. Moore, J. C. Becca,
      V. Konjkov, T. Risthaus, M. Malagoli, A. Marenich, A. Otero-de-la-Roza,
        J. Mullin, P. Nichols, R. Peverati, J. Pittner, Y. Zhao, P.-D. Fan,
        A. Fonari, M. J. Williamson, R. J. Harrison, J. R. Rehr, M. Dupuis,
     D. Silverstein, D. M. A. Smith, J. Nieplocha, V. Tipparaju, M. Krishnan,
     B. E. Van Kuiken, A. Vazquez-Mayagoitia, M. Swart, Q. Wu, T. Van Voorhis,
     A. A. Auer, M. Nooijen, L. D. Crosby, E. Brown, G. Cisneros, G. I. Fann,
   H. Fruchtl, J. Garza, K. Hirao, R. A. Kendall, J. A. Nichols, K. Tsemekhman,
    K. Wolinski, J. Anchell, D. E. Bernholdt, P. Borowski, T. Clark, D. Clerc,
   H. Dachsel, M. J. O. Deegan, K. Dyall, D. Elwood, E. Glendening, M. Gutowski,
   A. C. Hess, J. Jaffe, B. G. Johnson, J. Ju, R. Kobayashi, R. Kutteh, Z. Lin,
   R. Littlefield, X. Long, B. Meng, T. Nakajima, S. Niu, L. Pollack, M. Rosing,
   K. Glaesemann, G. Sandrone, M. Stave, H. Taylor, G. Thomas, J. H. van Lenthe,
                               A. T. Wong, Z. Zhang.

 Total times  cpu:     1595.8s     wall:     1595.8s
