 argument  1 = nwchem.in
  NWChem w/ OpenMP: maximum threads =    1
                                         
                                         


             Northwest Computational Chemistry Package (NWChem) 7.2.3
             --------------------------------------------------------


                    Environmental Molecular Sciences Laboratory
                       Pacific Northwest National Laboratory
                                Richland, WA 99352

                              Copyright (c) 1994-2022
                       Pacific Northwest National Laboratory
                            Battelle Memorial Institute

             NWChem is an open-source computational chemistry package
                        distributed under the terms of the
                      Educational Community License (ECL) 2.0
             A copy of the license is included with this distribution
                              in the LICENSE.TXT file

                                  ACKNOWLEDGMENT
                                  --------------

            This software and its documentation were developed at the
            EMSL at Pacific Northwest National Laboratory, a multiprogram
            national laboratory, operated for the U.S. Department of Energy
            by Battelle under Contract Number DE-AC05-76RL01830. Support
            for this work was provided by the Department of Energy Office
            of Biological and Environmental Research, Office of Basic
            Energy Sciences, and the Office of Advanced Scientific Computing.


           Job information
           ---------------

    hostname        = 475d146b09fa
    program         = nwchem
    date            = Sun Jun 29 04:20:41 2025

    compiled        = Fri_May_02_22:05:35_2025
    source          = /opt/nwchem
    nwchem branch   = 7.2.3
    nwchem revision = N/A
    ga revision     = 5.9.1
    use scalapack   = T
    input           = nwchem.in
    prefix          = ni_singlepoint.
    data base       = ./ni_singlepoint.db
    status          = startup
    nproc           =        5
    time left       =     -1s



           Memory information
           ------------------

    heap     =    509724440 doubles =     3888.9 Mbytes
    stack    =    509724441 doubles =     3888.9 Mbytes
    global   =    291271111 doubles =     2222.2 Mbytes (distinct from heap & stack)
    total    =   1310719992 doubles =    10000.0 Mbytes
    verify   = yes
    hardfail = no 


           Directory information
           ---------------------

  0 permanent = .
  0 scratch   = .




                                NWChem Input Module
                                -------------------


                          Ni complex single-point energy
                          ------------------------------

 Scaling coordinates for geometry "geometry" by  1.889725989
 (inverse scale =  0.529177249)

 C1  symmetry detected

          ------
          auto-z
          ------
  no constraints, skipping    0.0000000000000000     
  no constraints, skipping    0.0000000000000000     


                             Geometry "geometry" -> ""
                             -------------------------

 Output coordinates in angstroms (scale by  1.889725989 to convert to a.u.)

  No.       Tag          Charge          X              Y              Z
 ---- ---------------- ---------- -------------- -------------- --------------
    1 C                    6.0000     1.36573806     0.85032745    -1.18065065
    2 O                    8.0000     1.22321190     1.54700735    -2.15806078
    3 Ni                  28.0000     0.12438900    -0.44727997    -0.80169836
    4 C                    6.0000    -1.15538579     0.41494752     0.32073865
    5 N                    7.0000    -2.04713160    -0.37835902     0.93894853
    6 N                    7.0000    -1.52688780     1.67573401     0.55215528
    7 C                    6.0000    -3.07888674     0.34284616     1.68455756
    8 C                    6.0000    -1.94673621    -1.80272459     0.95450761
    9 C                    6.0000    -2.79774075     1.79114676     1.27739233
   10 C                    6.0000    -0.85580252     2.84452575     0.07664798
   11 H                    1.0000    -4.07307216     0.00343521     1.38992059
   12 H                    1.0000    -2.96462265     0.17536093     2.75874943
   13 C                    6.0000    -2.54468248    -2.53098923    -0.07931975
   14 C                    6.0000    -1.26395215    -2.42137493     2.00819261
   15 H                    1.0000    -3.56672334     2.19539196     0.61463649
   16 H                    1.0000    -2.69364686     2.46385707     2.12888862
   17 C                    6.0000    -0.00797371     3.52005104     0.95902415
   18 C                    6.0000    -1.08977976     3.28330076    -1.22925799
   19 C                    6.0000    -2.40101553    -3.91456470    -0.06453918
   20 C                    6.0000    -3.35777711    -1.85889198    -1.16877934
   21 C                    6.0000    -1.16334197    -3.80702137     1.99204695
   22 C                    6.0000    -0.65237232    -1.62384809     3.14347568
   23 C                    6.0000     0.65569430     4.64532933     0.48425561
   24 C                    6.0000     0.17446171     3.08023535     2.40056157
   25 C                    6.0000    -0.40498586     4.41240988    -1.65985695
   26 C                    6.0000    -2.08355317     2.58955928    -2.14209909
   27 C                    6.0000    -1.71404138    -4.54634190     0.95736571
   28 H                    1.0000    -2.83169703    -4.50420036    -0.86416521
   29 C                    6.0000    -4.83233551    -2.25779557    -1.05510426
   30 C                    6.0000    -2.80725818    -2.16386352    -2.56183036
   31 H                    1.0000    -3.29184945    -0.77902521    -1.01868763
   32 H                    1.0000    -0.62860919    -4.31380842     2.78611041
   33 C                    6.0000     0.84235415    -1.90589282     3.29306855
   34 C                    6.0000    -1.39470261    -1.89747970     4.45418760
   35 H                    1.0000    -0.75671565    -0.56278021     2.90673677
   36 C                    6.0000     0.46621607     5.08148737    -0.81614913
   37 H                    1.0000     1.33125023     5.18316807     1.13844304
   38 C                    6.0000    -0.38345726     4.13126227     3.36504785
   39 C                    6.0000     1.63517163     2.77318389     2.72633650
   40 H                    1.0000    -0.38984371     2.15574890     2.54512126
   41 H                    1.0000    -0.54333055     4.76588726    -2.67353917
   42 C                    6.0000    -1.53345502     2.33606122    -3.54559429
   43 C                    6.0000    -3.38029948     3.40294076    -2.22062402
   44 H                    1.0000    -2.31610634     1.61558756    -1.70518480
   45 H                    1.0000    -1.60180495    -5.62285048     0.94551570
   46 H                    1.0000    -5.23507505    -2.02611041    -0.06684975
   47 H                    1.0000    -4.95967670    -3.32948455    -1.22068950
   48 H                    1.0000    -5.42929636    -1.73036910    -1.80121752
   49 H                    1.0000    -1.75475371    -1.88559439    -2.63768231
   50 H                    1.0000    -3.37208269    -1.61564377    -3.31838482
   51 H                    1.0000    -2.88850976    -3.22805735    -2.79266800
   52 H                    1.0000     1.37001101    -1.72464812     2.35731818
   53 H                    1.0000     1.02392028    -2.94188165     3.58576889
   54 H                    1.0000     1.27360057    -1.26108829     4.06118477
   55 H                    1.0000    -2.46246916    -1.68844823     4.36300511
   56 H                    1.0000    -0.99063741    -1.28250181     5.26025669
   57 H                    1.0000    -1.28875265    -2.94458511     4.74532429
   58 H                    1.0000     0.99967119     5.95285567    -1.17452140
   59 H                    1.0000    -1.43172694     4.35725794     3.15941885
   60 H                    1.0000     0.17616140     5.06528332     3.28361545
   61 H                    1.0000    -0.30166363     3.78320710     4.39673999
   62 H                    1.0000     2.03510680     2.01068306     2.06073949
   63 H                    1.0000     1.72565361     2.41581100     3.75452062
   64 H                    1.0000     2.25736567     3.66488010     2.62746745
   65 H                    1.0000    -0.57828169     1.81816284    -3.49710695
   66 H                    1.0000    -1.39042684     3.27193888    -4.09019633
   67 H                    1.0000    -2.24305803     1.73292784    -4.11603743
   68 H                    1.0000    -3.81320641     3.58428784    -1.23488645
   69 H                    1.0000    -4.12062836     2.88403284    -2.83285246
   70 H                    1.0000    -3.18785210     4.37610449    -2.67789552
   71 N                    7.0000     0.92292700    -1.61183026    -1.96842693
   72 C                    6.0000     4.82140406     1.39547447     1.27757128
   73 C                    6.0000     4.48136792     2.34284917     0.31813940
   74 H                    1.0000     4.34816920    -0.51154494     2.14242767
   75 C                    6.0000     4.07232906     0.23341584     1.40668732
   76 C                    6.0000     3.37666583     2.13966244    -0.49130175
   77 C                    6.0000     2.60235423     0.99294154    -0.33817412
   78 C                    6.0000     2.96295915     0.03270015     0.59697282
   79 H                    1.0000     3.08566590     2.85776007    -1.24745101
   80 H                    1.0000     2.37639146    -0.87441570     0.67696434
   81 H                    1.0000     5.67453032     1.56417077     1.92275817
   82 H                    1.0000     5.07779988     3.23973358     0.20559357
   83 C                    6.0000     1.86808569    -2.53623512    -1.53995367
   84 C                    6.0000     3.08474887    -2.78190912    -2.19502213
   85 C                    6.0000     1.59234567    -3.29714014    -0.39135284
   86 C                    6.0000     3.95558159    -3.76093216    -1.73568627
   87 H                    1.0000     3.36486553    -2.19757302    -3.06014953
   88 C                    6.0000     2.46041764    -4.27588580     0.05446634
   89 H                    1.0000     0.64716436    -3.13159570     0.11394555
   90 C                    6.0000     3.65073952    -4.52729379    -0.62117326
   91 H                    1.0000     4.88818716    -3.92532833    -2.26280947
   92 H                    1.0000     2.19309511    -4.86944969     0.92163430
   93 H                    1.0000     4.31930614    -5.31187642    -0.29178242
   94 C                    6.0000     0.99012771    -1.24332665    -3.37232230
   95 H                    1.0000     1.94437337    -0.80038680    -3.68055178
   96 H                    1.0000     0.80613273    -2.12222498    -4.00231112
   97 H                    1.0000     0.22139340    -0.50197712    -3.58659929

      Atomic Mass 
      ----------- 

      C                 12.000000
      O                 15.994910
      Ni                57.935300
      N                 14.003070
      H                  1.007825


 Effective nuclear repulsion energy (a.u.)    7254.0043564255

            Nuclear Dipole moment (a.u.) 
            ----------------------------
        X                 Y               Z
 ---------------- ---------------- ----------------
    -0.0000000000    -0.0000000000    -0.0000000000



                                Z-matrix (autoz)
                                -------- 

 Units are Angstrom for bonds and degrees for angles

      Type          Name      I     J     K     L     M      Value
      ----------- --------  ----- ----- ----- ----- ----- ----------
    1 Stretch                  1     2                       1.20872
    2 Stretch                  1     3                       1.83530
    3 Stretch                  1    77                       1.50311
    4 Stretch                  3     4                       1.90817
    5 Stretch                  3    71                       1.83169
    6 Stretch                  4     5                       1.34415
    7 Stretch                  4     6                       1.33460
    8 Stretch                  5     7                       1.46307
    9 Stretch                  5     8                       1.42798
   10 Stretch                  6     9                       1.46777
   11 Stretch                  6    10                       1.42917
   12 Stretch                  7     9                       1.53049
   13 Stretch                  7    11                       1.09106
   14 Stretch                  7    12                       1.09316
   15 Stretch                  8    13                       1.39882
   16 Stretch                  8    14                       1.39971
   17 Stretch                  9    15                       1.09270
   18 Stretch                  9    16                       1.09015
   19 Stretch                 10    17                       1.39776
   20 Stretch                 10    18                       1.39738
   21 Stretch                 13    19                       1.39109
   22 Stretch                 13    20                       1.51650
   23 Stretch                 14    21                       1.38939
   24 Stretch                 14    22                       1.51623
   25 Stretch                 17    23                       1.39000
   26 Stretch                 17    24                       1.51814
   27 Stretch                 18    25                       1.38897
   28 Stretch                 18    26                       1.51728
   29 Stretch                 19    27                       1.38397
   30 Stretch                 19    28                       1.08285
   31 Stretch                 20    29                       1.53179
   32 Stretch                 20    30                       1.52862
   33 Stretch                 20    31                       1.09224
   34 Stretch                 21    27                       1.38580
   35 Stretch                 21    32                       1.08319
   36 Stretch                 22    33                       1.52844
   37 Stretch                 22    34                       1.53098
   38 Stretch                 22    35                       1.09215
   39 Stretch                 23    36                       1.38463
   40 Stretch                 23    37                       1.08333
   41 Stretch                 24    38                       1.53172
   42 Stretch                 24    39                       1.52777
   43 Stretch                 24    40                       1.09271
   44 Stretch                 25    36                       1.38510
   45 Stretch                 25    41                       1.08242
   46 Stretch                 26    42                       1.52862
   47 Stretch                 26    43                       1.53274
   48 Stretch                 26    44                       1.09252
   49 Stretch                 27    45                       1.08241
   50 Stretch                 29    46                       1.09203
   51 Stretch                 29    47                       1.09186
   52 Stretch                 29    48                       1.09143
   53 Stretch                 30    49                       1.09131
   54 Stretch                 30    50                       1.09176
   55 Stretch                 30    51                       1.09197
   56 Stretch                 33    52                       1.08945
   57 Stretch                 33    53                       1.09175
   58 Stretch                 33    54                       1.09167
   59 Stretch                 34    55                       1.09185
   60 Stretch                 34    56                       1.09143
   61 Stretch                 34    57                       1.09198
   62 Stretch                 36    58                       1.08272
   63 Stretch                 38    59                       1.09189
   64 Stretch                 38    60                       1.09188
   65 Stretch                 38    61                       1.09189
   66 Stretch                 39    62                       1.08829
   67 Stretch                 39    63                       1.09228
   68 Stretch                 39    64                       1.09180
   69 Stretch                 42    65                       1.08762
   70 Stretch                 42    66                       1.09221
   71 Stretch                 42    67                       1.09211
   72 Stretch                 43    68                       1.09178
   73 Stretch                 43    69                       1.09187
   74 Stretch                 43    70                       1.09233
   75 Stretch                 71    83                       1.38976
   76 Stretch                 71    94                       1.45301
   77 Stretch                 72    73                       1.39056
   78 Stretch                 72    75                       1.38858
   79 Stretch                 72    81                       1.08284
   80 Stretch                 73    76                       1.38450
   81 Stretch                 73    82                       1.08296
   82 Stretch                 74    75                       1.08276
   83 Stretch                 75    78                       1.38803
   84 Stretch                 76    77                       1.39211
   85 Stretch                 76    79                       1.08264
   86 Stretch                 77    78                       1.38802
   87 Stretch                 78    80                       1.08320
   88 Stretch                 83    84                       1.40347
   89 Stretch                 83    85                       1.40510
   90 Stretch                 84    86                       1.38846
   91 Stretch                 84    87                       1.08091
   92 Stretch                 85    88                       1.38212
   93 Stretch                 85    89                       1.08448
   94 Stretch                 86    90                       1.38650
   95 Stretch                 86    91                       1.08381
   96 Stretch                 88    90                       1.39160
   97 Stretch                 88    92                       1.08432
   98 Stretch                 90    93                       1.08215
   99 Stretch                 94    95                       1.09626
  100 Stretch                 94    96                       1.09691
  101 Stretch                 94    97                       1.08925
  102 Bend                     1     3     4               104.80971
  103 Bend                     1     3    71                91.32492
  104 Bend                     1    77    76               118.30104
  105 Bend                     1    77    78               121.71655
  106 Bend                     2     1     3               119.65165
  107 Bend                     2     1    77               119.70625
  108 Bend                     3     1    77               120.51805
  109 Bend                     3     4     5               116.66707
  110 Bend                     3     4     6               135.68907
  111 Bend                     3    71    83               121.53349
  112 Bend                     3    71    94               118.31755
  113 Bend                     4     3    71               162.62130
  114 Bend                     4     5     7               114.28692
  115 Bend                     4     5     8               123.16599
  116 Bend                     4     6     9               113.63925
  117 Bend                     4     6    10               125.74504
  118 Bend                     5     4     6               107.04532
  119 Bend                     5     7     9               101.61577
  120 Bend                     5     7    11               110.58621
  121 Bend                     5     7    12               110.58153
  122 Bend                     5     8    13               118.76389
  123 Bend                     5     8    14               118.90534
  124 Bend                     6     9     7               102.47967
  125 Bend                     6     9    15               109.79939
  126 Bend                     6     9    16               110.59657
  127 Bend                     6    10    17               118.03577
  128 Bend                     6    10    18               119.28170
  129 Bend                     7     5     8               122.39244
  130 Bend                     7     9    15               112.46797
  131 Bend                     7     9    16               113.18418
  132 Bend                     8    13    19               117.76287
  133 Bend                     8    13    20               121.96535
  134 Bend                     8    14    21               117.86382
  135 Bend                     8    14    22               121.86591
  136 Bend                     9     6    10               120.44133
  137 Bend                     9     7    11               112.94963
  138 Bend                     9     7    12               112.78059
  139 Bend                    10    17    23               117.72557
  140 Bend                    10    17    24               122.16119
  141 Bend                    10    18    25               117.54343
  142 Bend                    10    18    26               121.89387
  143 Bend                    11     7    12               108.23677
  144 Bend                    13     8    14               122.32857
  145 Bend                    13    19    27               120.87322
  146 Bend                    13    19    28               119.51546
  147 Bend                    13    20    29               110.32882
  148 Bend                    13    20    30               111.91172
  149 Bend                    13    20    31               107.88375
  150 Bend                    14    21    27               120.79463
  151 Bend                    14    21    32               119.59280
  152 Bend                    14    22    33               111.75752
  153 Bend                    14    22    34               110.57554
  154 Bend                    14    22    35               108.07033
  155 Bend                    15     9    16               108.21955
  156 Bend                    17    10    18               122.66770
  157 Bend                    17    23    36               120.69414
  158 Bend                    17    23    37               119.56414
  159 Bend                    17    24    38               110.81442
  160 Bend                    17    24    39               112.06120
  161 Bend                    17    24    40               107.97889
  162 Bend                    18    25    36               120.92677
  163 Bend                    18    25    41               119.52325
  164 Bend                    18    26    42               113.11058
  165 Bend                    18    26    43               110.01764
  166 Bend                    18    26    44               107.84424
  167 Bend                    19    13    20               120.25189
  168 Bend                    19    27    21               120.33269
  169 Bend                    19    27    45               119.82784
  170 Bend                    20    29    46               111.52640
  171 Bend                    20    29    47               110.89298
  172 Bend                    20    29    48               110.48374
  173 Bend                    20    30    49               111.08827
  174 Bend                    20    30    50               110.18234
  175 Bend                    20    30    51               111.11764
  176 Bend                    21    14    22               120.26966
  177 Bend                    21    27    45               119.83865
  178 Bend                    22    33    52               111.03177
  179 Bend                    22    33    53               111.34517
  180 Bend                    22    33    54               110.25439
  181 Bend                    22    34    55               111.62094
  182 Bend                    22    34    56               110.61417
  183 Bend                    22    34    57               110.64617
  184 Bend                    23    17    24               120.09800
  185 Bend                    23    36    25               120.39716
  186 Bend                    23    36    58               119.79820
  187 Bend                    24    38    59               111.90884
  188 Bend                    24    38    60               110.69081
  189 Bend                    24    38    61               110.42295
  190 Bend                    24    39    62               111.20827
  191 Bend                    24    39    63               110.22347
  192 Bend                    24    39    64               111.18686
  193 Bend                    25    18    26               120.53640
  194 Bend                    25    36    58               119.80430
  195 Bend                    26    42    65               110.73686
  196 Bend                    26    42    66               111.27463
  197 Bend                    26    42    67               109.71464
  198 Bend                    26    43    68               112.16990
  199 Bend                    26    43    69               110.49753
  200 Bend                    26    43    70               110.19220
  201 Bend                    27    19    28               119.61128
  202 Bend                    27    21    32               119.59792
  203 Bend                    29    20    30               111.24526
  204 Bend                    29    20    31               107.78071
  205 Bend                    30    20    31               107.50204
  206 Bend                    33    22    34               110.94090
  207 Bend                    33    22    35               107.09313
  208 Bend                    34    22    35               108.23382
  209 Bend                    36    23    37               119.74119
  210 Bend                    36    25    41               119.54401
  211 Bend                    38    24    39               110.60317
  212 Bend                    38    24    40               108.00678
  213 Bend                    39    24    40               107.18814
  214 Bend                    42    26    43               110.20763
  215 Bend                    42    26    44               107.21399
  216 Bend                    43    26    44               108.26974
  217 Bend                    46    29    47               107.60617
  218 Bend                    46    29    48               108.32499
  219 Bend                    47    29    48               107.86972
  220 Bend                    49    30    50               108.82938
  221 Bend                    49    30    51               107.79249
  222 Bend                    50    30    51               107.72111
  223 Bend                    52    33    53               107.91449
  224 Bend                    52    33    54               108.34615
  225 Bend                    53    33    54               107.82755
  226 Bend                    55    34    56               108.41248
  227 Bend                    55    34    57               107.50153
  228 Bend                    56    34    57               107.90746
  229 Bend                    59    38    60               107.51493
  230 Bend                    59    38    61               108.41126
  231 Bend                    60    38    61               107.74336
  232 Bend                    62    39    63               108.42319
  233 Bend                    62    39    64               107.90385
  234 Bend                    63    39    64               107.77332
  235 Bend                    65    42    66               108.37542
  236 Bend                    65    42    67               109.32573
  237 Bend                    66    42    67               107.32893
  238 Bend                    68    43    69               108.44196
  239 Bend                    68    43    70               107.44793
  240 Bend                    69    43    70               107.94668
  241 Bend                    71    83    84               124.20077
  242 Bend                    71    83    85               118.60489
  243 Bend                    71    94    95               114.48097
  244 Bend                    71    94    96               110.11789
  245 Bend                    71    94    97               109.27128
  246 Bend                    72    73    76               119.90151
  247 Bend                    72    73    82               120.08345
  248 Bend                    72    75    74               120.10161
  249 Bend                    72    75    78               119.86279
  250 Bend                    73    72    75               120.15832
  251 Bend                    73    72    81               119.84238
  252 Bend                    73    76    77               120.02552
  253 Bend                    73    76    79               121.69914
  254 Bend                    74    75    78               120.03399
  255 Bend                    75    72    81               119.99901
  256 Bend                    75    78    77               120.04137
  257 Bend                    75    78    80               120.71841
  258 Bend                    76    73    82               120.01483
  259 Bend                    76    77    78               119.96459
  260 Bend                    77    76    79               118.27393
  261 Bend                    77    78    80               119.23655
  262 Bend                    83    71    94               115.79323
  263 Bend                    83    84    86               120.84560
  264 Bend                    83    84    87               120.23826
  265 Bend                    83    85    88               121.59497
  266 Bend                    83    85    89               117.98580
  267 Bend                    84    83    85               117.18551
  268 Bend                    84    86    90               121.18265
  269 Bend                    84    86    91               119.06145
  270 Bend                    85    88    90               120.56772
  271 Bend                    85    88    92               119.39095
  272 Bend                    86    84    87               118.90954
  273 Bend                    86    90    88               118.58596
  274 Bend                    86    90    93               120.63601
  275 Bend                    88    85    89               120.34488
  276 Bend                    88    90    93               120.77397
  277 Bend                    90    86    91               119.75584
  278 Bend                    90    88    92               120.01715
  279 Bend                    95    94    96               107.95508
  280 Bend                    95    94    97               106.49993
  281 Bend                    96    94    97               108.29878
  282 Torsion                  1     3     4     5        -168.38581
  283 Torsion                  1     3     4     6          21.86880
  284 Torsion                  1     3    71    83          94.16279
  285 Torsion                  1     3    71    94         -61.41727
  286 Torsion                  1    77    76    73         176.41465
  287 Torsion                  1    77    76    79          -3.16058
  288 Torsion                  1    77    78    75        -176.53568
  289 Torsion                  1    77    78    80           4.15595
  290 Torsion                  2     1     3     4         -90.65988
  291 Torsion                  2     1     3    71          82.81559
  292 Torsion                  2     1    77    76          16.54729
  293 Torsion                  2     1    77    78        -164.98943
  294 Torsion                  3     1    77    76        -167.51563
  295 Torsion                  3     1    77    78          10.94765
  296 Torsion                  3     4     5     7        -174.56179
  297 Torsion                  3     4     5     8           9.86591
  298 Torsion                  3     4     6     9         165.64497
  299 Torsion                  3     4     6    10          -9.54224
  300 Torsion                  3    71    83    84        -134.32337
  301 Torsion                  3    71    83    85          46.78982
  302 Torsion                  3    71    94    95          97.53922
  303 Torsion                  3    71    94    96        -140.62282
  304 Torsion                  3    71    94    97         -21.78757
  305 Torsion                  4     3     1    77          93.40083
  306 Torsion                  4     3    71    83        -107.41663
  307 Torsion                  4     3    71    94          97.00331
  308 Torsion                  4     5     7     9           7.32579
  309 Torsion                  4     5     7    11         127.48702
  310 Torsion                  4     5     7    12        -112.63706
  311 Torsion                  4     5     8    13         -89.03916
  312 Torsion                  4     5     8    14          91.48806
  313 Torsion                  4     6     9     7           9.03474
  314 Torsion                  4     6     9    15        -110.68024
  315 Torsion                  4     6     9    16         129.96021
  316 Torsion                  4     6    10    17         -99.85418
  317 Torsion                  4     6    10    18          81.50879
  318 Torsion                  5     4     3    71          33.96811
  319 Torsion                  5     4     6     9          -4.77672
  320 Torsion                  5     4     6    10        -179.96392
  321 Torsion                  5     7     9     6          -8.97709
  322 Torsion                  5     7     9    15         108.85951
  323 Torsion                  5     7     9    16        -128.10346
  324 Torsion                  5     8    13    19         178.17128
  325 Torsion                  5     8    13    20          -3.44799
  326 Torsion                  5     8    14    21        -179.12370
  327 Torsion                  5     8    14    22           1.16227
  328 Torsion                  6     4     3    71        -135.77728
  329 Torsion                  6     4     5     7          -2.03553
  330 Torsion                  6     4     5     8        -177.60782
  331 Torsion                  6     9     7    11        -127.45789
  332 Torsion                  6     9     7    12         109.42006
  333 Torsion                  6    10    17    23         179.13163
  334 Torsion                  6    10    17    24          -2.28815
  335 Torsion                  6    10    18    25        -179.15196
  336 Torsion                  6    10    18    26           2.70496
  337 Torsion                  7     5     8    13          95.74117
  338 Torsion                  7     5     8    14         -83.73161
  339 Torsion                  7     9     6    10        -175.49540
  340 Torsion                  8     5     7     9        -177.06351
  341 Torsion                  8     5     7    11         -56.90228
  342 Torsion                  8     5     7    12          62.97364
  343 Torsion                  8    13    19    27           1.41673
  344 Torsion                  8    13    19    28        -178.51117
  345 Torsion                  8    13    20    29        -112.80218
  346 Torsion                  8    13    20    30         122.75798
  347 Torsion                  8    13    20    31           4.69724
  348 Torsion                  8    14    21    27           0.51625
  349 Torsion                  8    14    21    32         179.11823
  350 Torsion                  8    14    22    33        -123.60725
  351 Torsion                  8    14    22    34         112.27739
  352 Torsion                  8    14    22    35          -6.01920
  353 Torsion                  9     6    10    17          85.26050
  354 Torsion                  9     6    10    18         -93.37652
  355 Torsion                 10     6     9    15          64.78962
  356 Torsion                 10     6     9    16         -54.56994
  357 Torsion                 10    17    23    36           0.62247
  358 Torsion                 10    17    23    37        -179.11088
  359 Torsion                 10    17    24    38        -113.77698
  360 Torsion                 10    17    24    39         122.14869
  361 Torsion                 10    17    24    40           4.32582
  362 Torsion                 10    18    25    36          -0.62096
  363 Torsion                 10    18    25    41         178.48657
  364 Torsion                 10    18    26    42        -133.58173
  365 Torsion                 10    18    26    43         102.69484
  366 Torsion                 10    18    26    44         -15.19608
  367 Torsion                 11     7     9    15          -9.62129
  368 Torsion                 11     7     9    16         113.41575
  369 Torsion                 12     7     9    15        -132.74335
  370 Torsion                 12     7     9    16          -9.70631
  371 Torsion                 13     8    14    21           1.42325
  372 Torsion                 13     8    14    22        -178.29079
  373 Torsion                 13    19    27    21           0.43524
  374 Torsion                 13    19    27    45        -179.23514
  375 Torsion                 13    20    29    46          56.15376
  376 Torsion                 13    20    29    47         -63.75393
  377 Torsion                 13    20    29    48         176.69391
  378 Torsion                 13    20    30    49         -55.64948
  379 Torsion                 13    20    30    50        -176.33312
  380 Torsion                 13    20    30    51          64.35196
  381 Torsion                 14     8    13    19          -2.37493
  382 Torsion                 14     8    13    20         176.00581
  383 Torsion                 14    21    27    19          -1.43653
  384 Torsion                 14    21    27    45         178.23381
  385 Torsion                 14    22    33    52          55.31725
  386 Torsion                 14    22    33    53         -64.95317
  387 Torsion                 14    22    33    54         175.40542
  388 Torsion                 14    22    34    55         -56.07179
  389 Torsion                 14    22    34    56        -176.87515
  390 Torsion                 14    22    34    57          63.60037
  391 Torsion                 17    10    18    25           2.27716
  392 Torsion                 17    10    18    26        -175.86593
  393 Torsion                 17    23    36    25           0.94758
  394 Torsion                 17    23    36    58        -179.26725
  395 Torsion                 17    24    38    59          55.85689
  396 Torsion                 17    24    38    60         -64.05335
  397 Torsion                 17    24    38    61         176.72115
  398 Torsion                 17    24    39    62         -57.08720
  399 Torsion                 17    24    39    63        -177.36648
  400 Torsion                 17    24    39    64          63.18230
  401 Torsion                 18    10    17    23          -2.28060
  402 Torsion                 18    10    17    24         176.29963
  403 Torsion                 18    25    36    23          -0.94929
  404 Torsion                 18    25    36    58         179.26555
  405 Torsion                 18    26    42    65          52.52920
  406 Torsion                 18    26    42    66         -68.07795
  407 Torsion                 18    26    42    67         173.29734
  408 Torsion                 18    26    43    68         -55.83760
  409 Torsion                 18    26    43    69        -176.97007
  410 Torsion                 18    26    43    70          63.82152
  411 Torsion                 19    13    20    29          65.53906
  412 Torsion                 19    13    20    30         -58.90078
  413 Torsion                 19    13    20    31        -176.96152
  414 Torsion                 19    27    21    32         179.96155
  415 Torsion                 20    13    19    27        -176.99298
  416 Torsion                 20    13    19    28           3.07913
  417 Torsion                 21    14    22    33          56.68548
  418 Torsion                 21    14    22    34         -67.42989
  419 Torsion                 21    14    22    35         174.27352
  420 Torsion                 21    27    19    28        -179.63694
  421 Torsion                 22    14    21    27        -179.76496
  422 Torsion                 22    14    21    32          -1.16298
  423 Torsion                 23    17    24    38          64.77039
  424 Torsion                 23    17    24    39         -59.30393
  425 Torsion                 23    17    24    40        -177.12681
  426 Torsion                 23    36    25    41         179.94337
  427 Torsion                 24    17    23    36        -177.98831
  428 Torsion                 24    17    23    37           2.27834
  429 Torsion                 25    18    26    42          48.32987
  430 Torsion                 25    18    26    43         -75.39356
  431 Torsion                 25    18    26    44         166.71551
  432 Torsion                 25    36    23    37        -179.31954
  433 Torsion                 26    18    25    36         177.54861
  434 Torsion                 26    18    25    41          -3.34387
  435 Torsion                 28    19    27    45           0.69269
  436 Torsion                 29    20    30    49        -179.57711
  437 Torsion                 29    20    30    50          59.73925
  438 Torsion                 29    20    30    51         -59.57567
  439 Torsion                 30    20    29    46        -179.02475
  440 Torsion                 30    20    29    47          61.06756
  441 Torsion                 30    20    29    48         -58.48460
  442 Torsion                 31    20    29    46         -61.40925
  443 Torsion                 31    20    29    47         178.68306
  444 Torsion                 31    20    29    48          59.13090
  445 Torsion                 31    20    30    49          62.63860
  446 Torsion                 31    20    30    50         -58.04504
  447 Torsion                 31    20    30    51        -177.35996
  448 Torsion                 32    21    27    45          -0.36810
  449 Torsion                 33    22    34    55         179.34578
  450 Torsion                 33    22    34    56          58.54242
  451 Torsion                 33    22    34    57         -60.98206
  452 Torsion                 34    22    33    52         179.22740
  453 Torsion                 34    22    33    53          58.95698
  454 Torsion                 34    22    33    54         -60.68444
  455 Torsion                 35    22    33    52         -62.85609
  456 Torsion                 35    22    33    53         176.87349
  457 Torsion                 35    22    33    54          57.23207
  458 Torsion                 35    22    34    55          62.12503
  459 Torsion                 35    22    34    56         -58.67833
  460 Torsion                 35    22    34    57        -178.20280
  461 Torsion                 37    23    36    58           0.46562
  462 Torsion                 38    24    39    62         178.72066
  463 Torsion                 38    24    39    63          58.44139
  464 Torsion                 38    24    39    64         -61.00984
  465 Torsion                 39    24    38    59        -179.23992
  466 Torsion                 39    24    38    60          60.84984
  467 Torsion                 39    24    38    61         -58.37565
  468 Torsion                 40    24    38    59         -62.22894
  469 Torsion                 40    24    38    60         177.86082
  470 Torsion                 40    24    38    61          58.63533
  471 Torsion                 40    24    39    62          61.20582
  472 Torsion                 40    24    39    63         -59.07346
  473 Torsion                 40    24    39    64        -178.52468
  474 Torsion                 41    25    36    58           0.15821
  475 Torsion                 42    26    43    68         178.76513
  476 Torsion                 42    26    43    69          57.63267
  477 Torsion                 42    26    43    70         -61.57574
  478 Torsion                 43    26    42    65         176.14820
  479 Torsion                 43    26    42    66          55.54105
  480 Torsion                 43    26    42    67         -63.08366
  481 Torsion                 44    26    42    65         -66.22204
  482 Torsion                 44    26    42    66         173.17081
  483 Torsion                 44    26    42    67          54.54610
  484 Torsion                 44    26    43    68          61.78975
  485 Torsion                 44    26    43    69         -59.34271
  486 Torsion                 44    26    43    70        -178.55112
  487 Torsion                 71     3     1    77         -93.12370
  488 Torsion                 71    83    84    86        -177.38981
  489 Torsion                 71    83    84    87           3.55463
  490 Torsion                 71    83    85    88         177.01124
  491 Torsion                 71    83    85    89           0.13750
  492 Torsion                 72    73    76    77           0.44976
  493 Torsion                 72    73    76    79        -179.98993
  494 Torsion                 72    75    78    77          -0.10466
  495 Torsion                 72    75    78    80         179.19331
  496 Torsion                 73    72    75    74         178.93551
  497 Torsion                 73    72    75    78          -1.52607
  498 Torsion                 73    76    77    78          -2.07645
  499 Torsion                 74    75    72    81          -0.86826
  500 Torsion                 74    75    78    77         179.43407
  501 Torsion                 74    75    78    80          -1.26796
  502 Torsion                 75    72    73    76           1.35277
  503 Torsion                 75    72    73    82        -178.81335
  504 Torsion                 75    78    77    76           1.90252
  505 Torsion                 76    73    72    81        -178.84316
  506 Torsion                 76    77    78    80        -177.40585
  507 Torsion                 77    76    73    82        -179.38425
  508 Torsion                 78    75    72    81         178.67016
  509 Torsion                 78    77    76    79         178.34832
  510 Torsion                 79    76    73    82           0.17607
  511 Torsion                 81    72    73    82           0.99073
  512 Torsion                 83    71    94    95         -59.42133
  513 Torsion                 83    71    94    96          62.41663
  514 Torsion                 83    71    94    97        -178.74812
  515 Torsion                 83    84    86    90           0.18082
  516 Torsion                 83    84    86    91        -179.90647
  517 Torsion                 83    85    88    90           0.69861
  518 Torsion                 83    85    88    92        -177.51290
  519 Torsion                 84    83    71    94          21.83434
  520 Torsion                 84    83    85    88          -1.95374
  521 Torsion                 84    83    85    89        -178.82747
  522 Torsion                 84    86    90    88          -1.47967
  523 Torsion                 84    86    90    93         177.79280
  524 Torsion                 85    83    71    94        -157.05246
  525 Torsion                 85    83    84    86           1.51150
  526 Torsion                 85    83    84    87        -177.54406
  527 Torsion                 85    88    90    86           1.04325
  528 Torsion                 85    88    90    93        -178.22817
  529 Torsion                 86    90    88    92         179.24357
  530 Torsion                 87    84    86    90         179.24873
  531 Torsion                 87    84    86    91          -0.83856
  532 Torsion                 88    90    86    91         178.60821
  533 Torsion                 89    85    88    90         177.49958
  534 Torsion                 89    85    88    92          -0.71192
  535 Torsion                 91    86    90    93          -2.11932
  536 Torsion                 92    88    90    93          -0.02786


            XYZ format geometry
            -------------------
    97
 geometry
 C                     1.36573806     0.85032745    -1.18065065
 O                     1.22321190     1.54700735    -2.15806078
 Ni                    0.12438900    -0.44727997    -0.80169836
 C                    -1.15538579     0.41494752     0.32073865
 N                    -2.04713160    -0.37835902     0.93894853
 N                    -1.52688780     1.67573401     0.55215528
 C                    -3.07888674     0.34284616     1.68455756
 C                    -1.94673621    -1.80272459     0.95450761
 C                    -2.79774075     1.79114676     1.27739233
 C                    -0.85580252     2.84452575     0.07664798
 H                    -4.07307216     0.00343521     1.38992059
 H                    -2.96462265     0.17536093     2.75874943
 C                    -2.54468248    -2.53098923    -0.07931975
 C                    -1.26395215    -2.42137493     2.00819261
 H                    -3.56672334     2.19539196     0.61463649
 H                    -2.69364686     2.46385707     2.12888862
 C                    -0.00797371     3.52005104     0.95902415
 C                    -1.08977976     3.28330076    -1.22925799
 C                    -2.40101553    -3.91456470    -0.06453918
 C                    -3.35777711    -1.85889198    -1.16877934
 C                    -1.16334197    -3.80702137     1.99204695
 C                    -0.65237232    -1.62384809     3.14347568
 C                     0.65569430     4.64532933     0.48425561
 C                     0.17446171     3.08023535     2.40056157
 C                    -0.40498586     4.41240988    -1.65985695
 C                    -2.08355317     2.58955928    -2.14209909
 C                    -1.71404138    -4.54634190     0.95736571
 H                    -2.83169703    -4.50420036    -0.86416521
 C                    -4.83233551    -2.25779557    -1.05510426
 C                    -2.80725818    -2.16386352    -2.56183036
 H                    -3.29184945    -0.77902521    -1.01868763
 H                    -0.62860919    -4.31380842     2.78611041
 C                     0.84235415    -1.90589282     3.29306855
 C                    -1.39470261    -1.89747970     4.45418760
 H                    -0.75671565    -0.56278021     2.90673677
 C                     0.46621607     5.08148737    -0.81614913
 H                     1.33125023     5.18316807     1.13844304
 C                    -0.38345726     4.13126227     3.36504785
 C                     1.63517163     2.77318389     2.72633650
 H                    -0.38984371     2.15574890     2.54512126
 H                    -0.54333055     4.76588726    -2.67353917
 C                    -1.53345502     2.33606122    -3.54559429
 C                    -3.38029948     3.40294076    -2.22062402
 H                    -2.31610634     1.61558756    -1.70518480
 H                    -1.60180495    -5.62285048     0.94551570
 H                    -5.23507505    -2.02611041    -0.06684975
 H                    -4.95967670    -3.32948455    -1.22068950
 H                    -5.42929636    -1.73036910    -1.80121752
 H                    -1.75475371    -1.88559439    -2.63768231
 H                    -3.37208269    -1.61564377    -3.31838482
 H                    -2.88850976    -3.22805735    -2.79266800
 H                     1.37001101    -1.72464812     2.35731818
 H                     1.02392028    -2.94188165     3.58576889
 H                     1.27360057    -1.26108829     4.06118477
 H                    -2.46246916    -1.68844823     4.36300511
 H                    -0.99063741    -1.28250181     5.26025669
 H                    -1.28875265    -2.94458511     4.74532429
 H                     0.99967119     5.95285567    -1.17452140
 H                    -1.43172694     4.35725794     3.15941885
 H                     0.17616140     5.06528332     3.28361545
 H                    -0.30166363     3.78320710     4.39673999
 H                     2.03510680     2.01068306     2.06073949
 H                     1.72565361     2.41581100     3.75452062
 H                     2.25736567     3.66488010     2.62746745
 H                    -0.57828169     1.81816284    -3.49710695
 H                    -1.39042684     3.27193888    -4.09019633
 H                    -2.24305803     1.73292784    -4.11603743
 H                    -3.81320641     3.58428784    -1.23488645
 H                    -4.12062836     2.88403284    -2.83285246
 H                    -3.18785210     4.37610449    -2.67789552
 N                     0.92292700    -1.61183026    -1.96842693
 C                     4.82140406     1.39547447     1.27757128
 C                     4.48136792     2.34284917     0.31813940
 H                     4.34816920    -0.51154494     2.14242767
 C                     4.07232906     0.23341584     1.40668732
 C                     3.37666583     2.13966244    -0.49130175
 C                     2.60235423     0.99294154    -0.33817412
 C                     2.96295915     0.03270015     0.59697282
 H                     3.08566590     2.85776007    -1.24745101
 H                     2.37639146    -0.87441570     0.67696434
 H                     5.67453032     1.56417077     1.92275817
 H                     5.07779988     3.23973358     0.20559357
 C                     1.86808569    -2.53623512    -1.53995367
 C                     3.08474887    -2.78190912    -2.19502213
 C                     1.59234567    -3.29714014    -0.39135284
 C                     3.95558159    -3.76093216    -1.73568627
 H                     3.36486553    -2.19757302    -3.06014953
 C                     2.46041764    -4.27588580     0.05446634
 H                     0.64716436    -3.13159570     0.11394555
 C                     3.65073952    -4.52729379    -0.62117326
 H                     4.88818716    -3.92532833    -2.26280947
 H                     2.19309511    -4.86944969     0.92163430
 H                     4.31930614    -5.31187642    -0.29178242
 C                     0.99012771    -1.24332665    -3.37232230
 H                     1.94437337    -0.80038680    -3.68055178
 H                     0.80613273    -2.12222498    -4.00231112
 H                     0.22139340    -0.50197712    -3.58659929

 ==============================================================================
                                internuclear distances
 ------------------------------------------------------------------------------
       center one      |      center two      | atomic units |  angstroms
 ------------------------------------------------------------------------------
    2 O                |   1 C                |     2.28415  |     1.20872
    3 Ni               |   1 C                |     3.46822  |     1.83530
    4 C                |   3 Ni               |     3.60592  |     1.90817
    5 N                |   4 C                |     2.54007  |     1.34415
    6 N                |   4 C                |     2.52202  |     1.33460
    7 C                |   5 N                |     2.76481  |     1.46307
    8 C                |   5 N                |     2.69850  |     1.42798
    9 C                |   6 N                |     2.77369  |     1.46777
    9 C                |   7 C                |     2.89221  |     1.53049
   10 C                |   6 N                |     2.70075  |     1.42917
   11 H                |   7 C                |     2.06181  |     1.09106
   12 H                |   7 C                |     2.06577  |     1.09316
   13 C                |   8 C                |     2.64339  |     1.39882
   14 C                |   8 C                |     2.64506  |     1.39971
   15 H                |   9 C                |     2.06490  |     1.09270
   16 H                |   9 C                |     2.06008  |     1.09015
   17 C                |  10 C                |     2.64139  |     1.39776
   18 C                |  10 C                |     2.64066  |     1.39738
   19 C                |  13 C                |     2.62878  |     1.39109
   20 C                |  13 C                |     2.86576  |     1.51650
   21 C                |  14 C                |     2.62556  |     1.38939
   22 C                |  14 C                |     2.86525  |     1.51623
   23 C                |  17 C                |     2.62673  |     1.39000
   24 C                |  17 C                |     2.86887  |     1.51814
   25 C                |  18 C                |     2.62478  |     1.38897
   26 C                |  18 C                |     2.86725  |     1.51728
   27 C                |  19 C                |     2.61532  |     1.38397
   27 C                |  21 C                |     2.61877  |     1.38580
   28 H                |  19 C                |     2.04628  |     1.08285
   29 C                |  20 C                |     2.89466  |     1.53179
   30 C                |  20 C                |     2.88867  |     1.52862
   31 H                |  20 C                |     2.06403  |     1.09224
   32 H                |  21 C                |     2.04694  |     1.08319
   33 C                |  22 C                |     2.88834  |     1.52844
   34 C                |  22 C                |     2.89313  |     1.53098
   35 H                |  22 C                |     2.06387  |     1.09215
   36 C                |  23 C                |     2.61656  |     1.38463
   36 C                |  25 C                |     2.61746  |     1.38510
   37 H                |  23 C                |     2.04720  |     1.08333
   38 C                |  24 C                |     2.89453  |     1.53172
   39 C                |  24 C                |     2.88707  |     1.52777
   40 H                |  24 C                |     2.06492  |     1.09271
   41 H                |  25 C                |     2.04548  |     1.08242
   42 C                |  26 C                |     2.88867  |     1.52862
   43 C                |  26 C                |     2.89647  |     1.53274
   44 H                |  26 C                |     2.06456  |     1.09252
   45 H                |  27 C                |     2.04546  |     1.08241
   46 H                |  29 C                |     2.06363  |     1.09203
   47 H                |  29 C                |     2.06331  |     1.09186
   48 H                |  29 C                |     2.06251  |     1.09143
   49 H                |  30 C                |     2.06227  |     1.09131
   50 H                |  30 C                |     2.06313  |     1.09176
   51 H                |  30 C                |     2.06352  |     1.09197
   52 H                |  33 C                |     2.05876  |     1.08945
   53 H                |  33 C                |     2.06310  |     1.09175
   54 H                |  33 C                |     2.06296  |     1.09167
   55 H                |  34 C                |     2.06330  |     1.09185
   56 H                |  34 C                |     2.06250  |     1.09143
   57 H                |  34 C                |     2.06354  |     1.09198
   58 H                |  36 C                |     2.04605  |     1.08272
   59 H                |  38 C                |     2.06338  |     1.09189
   60 H                |  38 C                |     2.06335  |     1.09188
   61 H                |  38 C                |     2.06337  |     1.09189
   62 H                |  39 C                |     2.05657  |     1.08829
   63 H                |  39 C                |     2.06410  |     1.09228
   64 H                |  39 C                |     2.06320  |     1.09180
   65 H                |  42 C                |     2.05531  |     1.08762
   66 H                |  42 C                |     2.06397  |     1.09221
   67 H                |  42 C                |     2.06380  |     1.09211
   68 H                |  43 C                |     2.06316  |     1.09178
   69 H                |  43 C                |     2.06333  |     1.09187
   70 H                |  43 C                |     2.06420  |     1.09233
   71 N                |   3 Ni               |     3.46140  |     1.83169
   73 C                |  72 C                |     2.62777  |     1.39056
   75 C                |  72 C                |     2.62404  |     1.38858
   75 C                |  74 H                |     2.04612  |     1.08276
   76 C                |  73 C                |     2.61633  |     1.38450
   77 C                |   1 C                |     2.84046  |     1.50311
   77 C                |  76 C                |     2.63071  |     1.39211
   78 C                |  75 C                |     2.62300  |     1.38803
   78 C                |  77 C                |     2.62298  |     1.38802
   79 H                |  76 C                |     2.04589  |     1.08264
   80 H                |  78 C                |     2.04695  |     1.08320
   81 H                |  72 C                |     2.04628  |     1.08284
   82 H                |  73 C                |     2.04649  |     1.08296
   83 C                |  71 N                |     2.62627  |     1.38976
   84 C                |  83 C                |     2.65218  |     1.40347
   85 C                |  83 C                |     2.65525  |     1.40510
   86 C                |  84 C                |     2.62381  |     1.38846
   87 H                |  84 C                |     2.04262  |     1.08091
   88 C                |  85 C                |     2.61182  |     1.38212
   89 H                |  85 C                |     2.04937  |     1.08448
   90 C                |  86 C                |     2.62010  |     1.38650
   90 C                |  88 C                |     2.62975  |     1.39160
   91 H                |  86 C                |     2.04810  |     1.08381
   92 H                |  88 C                |     2.04908  |     1.08432
   93 H                |  90 C                |     2.04497  |     1.08215
   94 C                |  71 N                |     2.74579  |     1.45301
   95 H                |  94 C                |     2.07163  |     1.09626
   96 H                |  94 C                |     2.07285  |     1.09691
   97 H                |  94 C                |     2.05838  |     1.08925
 ------------------------------------------------------------------------------
                         number of included internuclear distances:        101
 ==============================================================================



 ==============================================================================
                                 internuclear angles
 ------------------------------------------------------------------------------
        center 1       |       center 2       |       center 3       |  degrees
 ------------------------------------------------------------------------------
    2 O                |   1 C                |   3 Ni               |   119.65
    2 O                |   1 C                |  77 C                |   119.71
    3 Ni               |   1 C                |  77 C                |   120.52
    1 C                |   3 Ni               |   4 C                |   104.81
    1 C                |   3 Ni               |  71 N                |    91.32
    4 C                |   3 Ni               |  71 N                |   162.62
    3 Ni               |   4 C                |   5 N                |   116.67
    3 Ni               |   4 C                |   6 N                |   135.69
    5 N                |   4 C                |   6 N                |   107.05
    4 C                |   5 N                |   7 C                |   114.29
    4 C                |   5 N                |   8 C                |   123.17
    7 C                |   5 N                |   8 C                |   122.39
    4 C                |   6 N                |   9 C                |   113.64
    4 C                |   6 N                |  10 C                |   125.75
    9 C                |   6 N                |  10 C                |   120.44
    5 N                |   7 C                |   9 C                |   101.62
    5 N                |   7 C                |  11 H                |   110.59
    5 N                |   7 C                |  12 H                |   110.58
    9 C                |   7 C                |  11 H                |   112.95
    9 C                |   7 C                |  12 H                |   112.78
   11 H                |   7 C                |  12 H                |   108.24
    5 N                |   8 C                |  13 C                |   118.76
    5 N                |   8 C                |  14 C                |   118.91
   13 C                |   8 C                |  14 C                |   122.33
    6 N                |   9 C                |   7 C                |   102.48
    6 N                |   9 C                |  15 H                |   109.80
    6 N                |   9 C                |  16 H                |   110.60
    7 C                |   9 C                |  15 H                |   112.47
    7 C                |   9 C                |  16 H                |   113.18
   15 H                |   9 C                |  16 H                |   108.22
    6 N                |  10 C                |  17 C                |   118.04
    6 N                |  10 C                |  18 C                |   119.28
   17 C                |  10 C                |  18 C                |   122.67
    8 C                |  13 C                |  19 C                |   117.76
    8 C                |  13 C                |  20 C                |   121.97
   19 C                |  13 C                |  20 C                |   120.25
    8 C                |  14 C                |  21 C                |   117.86
    8 C                |  14 C                |  22 C                |   121.87
   21 C                |  14 C                |  22 C                |   120.27
   10 C                |  17 C                |  23 C                |   117.73
   10 C                |  17 C                |  24 C                |   122.16
   23 C                |  17 C                |  24 C                |   120.10
   10 C                |  18 C                |  25 C                |   117.54
   10 C                |  18 C                |  26 C                |   121.89
   25 C                |  18 C                |  26 C                |   120.54
   13 C                |  19 C                |  27 C                |   120.87
   13 C                |  19 C                |  28 H                |   119.52
   27 C                |  19 C                |  28 H                |   119.61
   13 C                |  20 C                |  29 C                |   110.33
   13 C                |  20 C                |  30 C                |   111.91
   13 C                |  20 C                |  31 H                |   107.88
   29 C                |  20 C                |  30 C                |   111.25
   29 C                |  20 C                |  31 H                |   107.78
   30 C                |  20 C                |  31 H                |   107.50
   14 C                |  21 C                |  27 C                |   120.79
   14 C                |  21 C                |  32 H                |   119.59
   27 C                |  21 C                |  32 H                |   119.60
   14 C                |  22 C                |  33 C                |   111.76
   14 C                |  22 C                |  34 C                |   110.58
   14 C                |  22 C                |  35 H                |   108.07
   33 C                |  22 C                |  34 C                |   110.94
   33 C                |  22 C                |  35 H                |   107.09
   34 C                |  22 C                |  35 H                |   108.23
   17 C                |  23 C                |  36 C                |   120.69
   17 C                |  23 C                |  37 H                |   119.56
   36 C                |  23 C                |  37 H                |   119.74
   17 C                |  24 C                |  38 C                |   110.81
   17 C                |  24 C                |  39 C                |   112.06
   17 C                |  24 C                |  40 H                |   107.98
   38 C                |  24 C                |  39 C                |   110.60
   38 C                |  24 C                |  40 H                |   108.01
   39 C                |  24 C                |  40 H                |   107.19
   18 C                |  25 C                |  36 C                |   120.93
   18 C                |  25 C                |  41 H                |   119.52
   36 C                |  25 C                |  41 H                |   119.54
   18 C                |  26 C                |  42 C                |   113.11
   18 C                |  26 C                |  43 C                |   110.02
   18 C                |  26 C                |  44 H                |   107.84
   42 C                |  26 C                |  43 C                |   110.21
   42 C                |  26 C                |  44 H                |   107.21
   43 C                |  26 C                |  44 H                |   108.27
   19 C                |  27 C                |  21 C                |   120.33
   19 C                |  27 C                |  45 H                |   119.83
   21 C                |  27 C                |  45 H                |   119.84
   20 C                |  29 C                |  46 H                |   111.53
   20 C                |  29 C                |  47 H                |   110.89
   20 C                |  29 C                |  48 H                |   110.48
   46 H                |  29 C                |  47 H                |   107.61
   46 H                |  29 C                |  48 H                |   108.32
   47 H                |  29 C                |  48 H                |   107.87
   20 C                |  30 C                |  49 H                |   111.09
   20 C                |  30 C                |  50 H                |   110.18
   20 C                |  30 C                |  51 H                |   111.12
   49 H                |  30 C                |  50 H                |   108.83
   49 H                |  30 C                |  51 H                |   107.79
   50 H                |  30 C                |  51 H                |   107.72
   22 C                |  33 C                |  52 H                |   111.03
   22 C                |  33 C                |  53 H                |   111.35
   22 C                |  33 C                |  54 H                |   110.25
   52 H                |  33 C                |  53 H                |   107.91
   52 H                |  33 C                |  54 H                |   108.35
   53 H                |  33 C                |  54 H                |   107.83
   22 C                |  34 C                |  55 H                |   111.62
   22 C                |  34 C                |  56 H                |   110.61
   22 C                |  34 C                |  57 H                |   110.65
   55 H                |  34 C                |  56 H                |   108.41
   55 H                |  34 C                |  57 H                |   107.50
   56 H                |  34 C                |  57 H                |   107.91
   23 C                |  36 C                |  25 C                |   120.40
   23 C                |  36 C                |  58 H                |   119.80
   25 C                |  36 C                |  58 H                |   119.80
   24 C                |  38 C                |  59 H                |   111.91
   24 C                |  38 C                |  60 H                |   110.69
   24 C                |  38 C                |  61 H                |   110.42
   59 H                |  38 C                |  60 H                |   107.51
   59 H                |  38 C                |  61 H                |   108.41
   60 H                |  38 C                |  61 H                |   107.74
   24 C                |  39 C                |  62 H                |   111.21
   24 C                |  39 C                |  63 H                |   110.22
   24 C                |  39 C                |  64 H                |   111.19
   62 H                |  39 C                |  63 H                |   108.42
   62 H                |  39 C                |  64 H                |   107.90
   63 H                |  39 C                |  64 H                |   107.77
   26 C                |  42 C                |  65 H                |   110.74
   26 C                |  42 C                |  66 H                |   111.27
   26 C                |  42 C                |  67 H                |   109.71
   65 H                |  42 C                |  66 H                |   108.38
   65 H                |  42 C                |  67 H                |   109.33
   66 H                |  42 C                |  67 H                |   107.33
   26 C                |  43 C                |  68 H                |   112.17
   26 C                |  43 C                |  69 H                |   110.50
   26 C                |  43 C                |  70 H                |   110.19
   68 H                |  43 C                |  69 H                |   108.44
   68 H                |  43 C                |  70 H                |   107.45
   69 H                |  43 C                |  70 H                |   107.95
    3 Ni               |  71 N                |  83 C                |   121.53
    3 Ni               |  71 N                |  94 C                |   118.32
   83 C                |  71 N                |  94 C                |   115.79
   73 C                |  72 C                |  75 C                |   120.16
   73 C                |  72 C                |  81 H                |   119.84
   75 C                |  72 C                |  81 H                |   120.00
   72 C                |  73 C                |  76 C                |   119.90
   72 C                |  73 C                |  82 H                |   120.08
   76 C                |  73 C                |  82 H                |   120.01
   72 C                |  75 C                |  74 H                |   120.10
   72 C                |  75 C                |  78 C                |   119.86
   74 H                |  75 C                |  78 C                |   120.03
   73 C                |  76 C                |  77 C                |   120.03
   73 C                |  76 C                |  79 H                |   121.70
   77 C                |  76 C                |  79 H                |   118.27
    1 C                |  77 C                |  76 C                |   118.30
    1 C                |  77 C                |  78 C                |   121.72
   76 C                |  77 C                |  78 C                |   119.96
   75 C                |  78 C                |  77 C                |   120.04
   75 C                |  78 C                |  80 H                |   120.72
   77 C                |  78 C                |  80 H                |   119.24
   71 N                |  83 C                |  84 C                |   124.20
   71 N                |  83 C                |  85 C                |   118.60
   84 C                |  83 C                |  85 C                |   117.19
   83 C                |  84 C                |  86 C                |   120.85
   83 C                |  84 C                |  87 H                |   120.24
   86 C                |  84 C                |  87 H                |   118.91
   83 C                |  85 C                |  88 C                |   121.59
   83 C                |  85 C                |  89 H                |   117.99
   88 C                |  85 C                |  89 H                |   120.34
   84 C                |  86 C                |  90 C                |   121.18
   84 C                |  86 C                |  91 H                |   119.06
   90 C                |  86 C                |  91 H                |   119.76
   85 C                |  88 C                |  90 C                |   120.57
   85 C                |  88 C                |  92 H                |   119.39
   90 C                |  88 C                |  92 H                |   120.02
   86 C                |  90 C                |  88 C                |   118.59
   86 C                |  90 C                |  93 H                |   120.64
   88 C                |  90 C                |  93 H                |   120.77
   71 N                |  94 C                |  95 H                |   114.48
   71 N                |  94 C                |  96 H                |   110.12
   71 N                |  94 C                |  97 H                |   109.27
   95 H                |  94 C                |  96 H                |   107.96
   95 H                |  94 C                |  97 H                |   106.50
   96 H                |  94 C                |  97 H                |   108.30
 ------------------------------------------------------------------------------
                            number of included internuclear angles:        180
 ==============================================================================



                      Basis "ao basis" -> "" (cartesian)
                      -----
  C (Carbon)
  ----------
            Exponent  Coefficients 
       -------------- ---------------------------------------------------------
  1 S  8.50603840E+03  0.000534
  1 S  1.27573290E+03  0.004125
  1 S  2.90311870E+02  0.021171
  1 S  8.20562000E+01  0.082418
  1 S  2.64796410E+01  0.240129

  2 S  9.24145850E+00  1.000000

  3 S  3.36435300E+00  1.000000

  4 S  8.71741640E-01  1.000000

  5 S  3.63523520E-01  1.000000

  6 S  1.28731350E-01  1.000000

  7 P  3.47094960E+01  0.005330
  7 P  7.95908830E+00  0.035866
  7 P  2.37869720E+00  0.142003
  7 P  8.15400650E-01  0.342031

  8 P  2.89537850E-01  1.000000

  9 P  1.00847540E-01  1.000000

  H (Hydrogen)
  ------------
            Exponent  Coefficients 
       -------------- ---------------------------------------------------------
  1 S  3.40613410E+01  0.006025
  1 S  5.12357460E+00  0.045021
  1 S  1.16466260E+00  0.201897

  2 S  3.27230410E-01  1.000000

  3 S  1.03072410E-01  1.000000

  O (Oxygen)
  ----------
            Exponent  Coefficients 
       -------------- ---------------------------------------------------------
  1 S  1.59026475E+04  0.000515
  1 S  2.38495378E+03  0.003982
  1 S  5.42719572E+02  0.020477
  1 S  1.53404079E+02  0.080262
  1 S  4.95457161E+01  0.237668

  2 S  1.73396499E+01  1.000000

  3 S  6.33033553E+00  1.000000

  4 S  1.69958822E+00  1.000000

  5 S  6.89544913E-01  1.000000

  6 S  2.39360282E-01  1.000000

  7 P  6.32705240E+01  0.006071
  7 P  1.46233123E+01  0.041948
  7 P  4.44895180E+00  0.161569
[...]
  ----- ------------  ---------------      ----- ------------  ---------------
   739      1.432555  83 C  s               743      1.329472  83 C  s         
   701     -1.169567  77 C  s               740     -1.116012  83 C  s         
   697     -1.109048  77 C  s               802     -0.986702  88 C  s         
     6      0.963685   1 C  s               686     -0.887204  76 C  s         
   698      0.864308  77 C  s               742     -0.852076  83 C  s         

 Vector  847  Occ=0.000000D+00  E= 6.331113D+01
              MO Center=  1.6D+00,  9.0D-01,  7.4D-01, r^2= 8.6D+00
   Bfn.  Coefficient  Atom+Function         Bfn.  Coefficient  Atom+Function  
  ----- ------------  ---------------      ----- ------------  ---------------
     6      1.432113   1 C  s               716     -1.372293  78 C  s         
   712     -1.349690  78 C  s               701     -1.282570  77 C  s         
   697     -1.110920  77 C  s               326     -1.089833  24 C  s         
   713      1.054581  78 C  s               322     -1.040448  24 C  s         
   296      1.016738  22 C  s                 2      1.007763   1 C  s         

 Vector  848  Occ=0.000000D+00  E= 6.332088D+01
              MO Center=  2.4D+00, -2.3D-01, -1.1D-01, r^2= 1.0D+01
   Bfn.  Coefficient  Atom+Function         Bfn.  Coefficient  Atom+Function  
  ----- ------------  ---------------      ----- ------------  ---------------
   686      1.234850  76 C  s               712     -1.233795  78 C  s         
   739      1.199641  83 C  s               716     -1.173750  78 C  s         
   682      1.091455  76 C  s               743      1.087332  83 C  s         
   713      0.960463  78 C  s               649     -0.946573  73 C  s         
   740     -0.936276  83 C  s               701      0.899282  77 C  s         

 Vector  849  Occ=0.000000D+00  E= 6.333171D+01
              MO Center= -8.9D-01,  5.6D-01, -4.7D-01, r^2= 1.3D+01
   Bfn.  Coefficient  Atom+Function         Bfn.  Coefficient  Atom+Function  
  ----- ------------  ---------------      ----- ------------  ---------------
   266     -1.342801  20 C  s               356      1.333862  26 C  s         
   352      1.277708  26 C  s                 6      1.231746   1 C  s         
   262     -1.182591  20 C  s                 2      1.085531   1 C  s         
   236     -1.045872  18 C  s               142     -1.037172   8 C  py        
   353     -0.998970  26 C  s               263      0.926055  20 C  s         

 Vector  850  Occ=0.000000D+00  E= 6.334975D+01
              MO Center=  2.2D+00, -3.0D+00, -1.1D+00, r^2= 3.7D+00
   Bfn.  Coefficient  Atom+Function         Bfn.  Coefficient  Atom+Function  
  ----- ------------  ---------------      ----- ------------  ---------------
   769      1.995937  85 C  s               773      1.963044  85 C  s         
   770     -1.556191  85 C  s               758     -1.452235  84 C  s         
   754     -1.408350  84 C  s               772     -1.206719  85 C  s         
   768     -1.170336  85 C  s               771      1.161162  85 C  s         
   755      1.098454  84 C  s               784      1.078141  86 C  s         

 Vector  851  Occ=0.000000D+00  E= 6.340805D+01
              MO Center= -1.4D+00, -6.2D-01,  5.9D-01, r^2= 1.1D+01
   Bfn.  Coefficient  Atom+Function         Bfn.  Coefficient  Atom+Function  
  ----- ------------  ---------------      ----- ------------  ---------------
   185      2.070455  13 C  s               200     -1.762149  14 C  s         
   143      1.750009   8 C  pz              181      1.498769  13 C  s         
   196     -1.435987  14 C  s               221     -1.268582  17 C  s         
   182     -1.179818  13 C  s               173      1.147885  10 C  pz        
   194      1.134267  13 C  pz              197      1.131583  14 C  s         

 Vector  852  Occ=0.000000D+00  E= 6.341971D+01
              MO Center= -1.7D+00, -1.7D+00,  7.5D-01, r^2= 8.6D+00
   Bfn.  Coefficient  Atom+Function         Bfn.  Coefficient  Atom+Function  
  ----- ------------  ---------------      ----- ------------  ---------------
   134      2.794881   8 C  s               130      1.705672   8 C  s         
   209      1.514553  14 C  pz              200     -1.382173  14 C  s         
   131     -1.345202   8 C  s               142     -1.241769   8 C  py        
   133     -1.208714   8 C  s               281     -1.113262  21 C  s         
   251     -1.105445  19 C  s               132      1.058034   8 C  s         

 Vector  853  Occ=0.000000D+00  E= 6.342259D+01
              MO Center= -1.1D+00,  9.5D-01,  9.9D-02, r^2= 1.4D+01
   Bfn.  Coefficient  Atom+Function         Bfn.  Coefficient  Atom+Function  
  ----- ------------  ---------------      ----- ------------  ---------------
   245      1.654772  18 C  pz              236      1.583917  18 C  s         
   173      1.552673  10 C  pz              134      1.447006   8 C  s         
   164     -1.266460  10 C  s               232      1.170084  18 C  s         
   194     -1.146790  13 C  pz              356      1.139902  26 C  s         
   185     -1.075862  13 C  s               142     -0.979645   8 C  py        

 Vector  854  Occ=0.000000D+00  E= 6.344223D+01
              MO Center= -4.7D-01,  2.9D+00, -2.0D-01, r^2= 6.3D+00
   Bfn.  Coefficient  Atom+Function         Bfn.  Coefficient  Atom+Function  
  ----- ------------  ---------------      ----- ------------  ---------------
   164      2.876801  10 C  s               160      1.805451  10 C  s         
   161     -1.425856  10 C  s               221     -1.373079  17 C  s         
   163     -1.283626  10 C  s               230      1.260709  17 C  pz        
   311     -1.227780  23 C  s               341     -1.190162  25 C  s         
   172      1.159524  10 C  py              162      1.126559  10 C  s         

 Vector  855  Occ=0.000000D+00  E= 6.355842D+01
              MO Center=  3.0D+00, -9.4D-01, -1.8D-01, r^2= 9.1D+00
   Bfn.  Coefficient  Atom+Function         Bfn.  Coefficient  Atom+Function  
  ----- ------------  ---------------      ----- ------------  ---------------
   701      2.055096  77 C  s               716     -1.979184  78 C  s         
   671      1.844165  75 C  s               686     -1.789445  76 C  s         
   653      1.726417  73 C  s               638     -1.681039  72 C  s         
   743     -1.559244  83 C  s               773      1.532870  85 C  s         
   806     -1.462667  88 C  s               824      1.453656  90 C  s         

 Vector  856  Occ=0.000000D+00  E= 6.356623D+01
              MO Center=  3.0D+00, -1.5D+00, -4.2D-01, r^2= 8.4D+00
   Bfn.  Coefficient  Atom+Function         Bfn.  Coefficient  Atom+Function  
  ----- ------------  ---------------      ----- ------------  ---------------
   743      2.095492  83 C  s               716     -1.900299  78 C  s         
   773     -1.880317  85 C  s               806      1.797332  88 C  s         
   701      1.781734  77 C  s               758     -1.723818  84 C  s         
   824     -1.730703  90 C  s               788      1.715327  86 C  s         
   653      1.546894  73 C  s               671      1.552087  75 C  s         

 Vector  857  Occ=0.000000D+00  E= 6.359142D+01
              MO Center= -1.7D+00, -2.8D+00,  9.2D-01, r^2= 3.6D+00
   Bfn.  Coefficient  Atom+Function         Bfn.  Coefficient  Atom+Function  
  ----- ------------  ---------------      ----- ------------  ---------------
   134      3.524016   8 C  s               185     -3.016922  13 C  s         
   200     -2.963806  14 C  s               281      2.713675  21 C  s         
   251      2.607097  19 C  s               371     -2.481320  27 C  s         
   142     -2.294384   8 C  py              194     -1.627373  13 C  pz        
   209      1.628611  14 C  pz              130      1.372303   8 C  s         

 Vector  858  Occ=0.000000D+00  E= 6.360070D+01
              MO Center= -3.4D-01,  3.6D+00, -2.7D-01, r^2= 3.0D+00
   Bfn.  Coefficient  Atom+Function         Bfn.  Coefficient  Atom+Function  
  ----- ------------  ---------------      ----- ------------  ---------------
   164      3.661966  10 C  s               236     -3.129187  18 C  s         
   221     -2.966318  17 C  s               311      2.670926  23 C  s         
   341      2.671853  25 C  s               458     -2.506725  36 C  s         
   230      2.098637  17 C  pz              172      1.941370  10 C  py        
   350      1.508535  25 C  pz              243     -1.494371  18 C  px        

 Vector  859  Occ=0.000000D+00  E= 8.881613D+01
              MO Center= -1.7D+00,  2.1D-01,  6.3D-01, r^2= 2.2D+00
   Bfn.  Coefficient  Atom+Function         Bfn.  Coefficient  Atom+Function  
  ----- ------------  ---------------      ----- ------------  ---------------
    85      2.336916   5 N  s               142     -2.000582   8 C  py        
    86     -1.820459   5 N  s               100     -1.704011   6 N  s         
    89      1.644457   5 N  s                84      1.372485   5 N  s         
   101      1.327318   6 N  s               172     -1.312055  10 C  py        
    87      1.287567   5 N  s               104     -1.256091   6 N  s         

 Vector  860  Occ=0.000000D+00  E= 8.886249D+01
              MO Center= -4.1D-01, -2.9D-02, -6.1D-01, r^2= 5.8D+00
   Bfn.  Coefficient  Atom+Function         Bfn.  Coefficient  Atom+Function  
  ----- ------------  ---------------      ----- ------------  ---------------
   619      2.050862  71 N  s               100      2.014619   6 N  s         
   620     -1.593888  71 N  s               101     -1.573641   6 N  s         
   104      1.416213   6 N  s               618      1.205577  71 N  s         
    99      1.182010   6 N  s               623      1.169363  71 N  s         
   102      1.125890   6 N  s               621      1.114907  71 N  s         

 Vector  861  Occ=0.000000D+00  E= 8.886583D+01
              MO Center= -5.5D-01, -5.0D-01, -5.0D-01, r^2= 5.5D+00
   Bfn.  Coefficient  Atom+Function         Bfn.  Coefficient  Atom+Function  
  ----- ------------  ---------------      ----- ------------  ---------------
   619      2.034841  71 N  s                85     -1.676498   5 N  s         
   620     -1.581797  71 N  s               100     -1.405520   6 N  s         
    86      1.309853   5 N  s               623      1.246171  71 N  s         
    89     -1.213439   5 N  s               618      1.196068  71 N  s         
   621      1.108281  71 N  s               101      1.098248   6 N  s         

 Vector  862  Occ=0.000000D+00  E= 1.171382D+02
              MO Center=  1.3D-01, -4.5D-01, -8.0D-01, r^2= 3.8D-02
   Bfn.  Coefficient  Atom+Function         Bfn.  Coefficient  Atom+Function  
  ----- ------------  ---------------      ----- ------------  ---------------
    38      0.898671   3 Ni pz               36      0.449097   3 Ni px        
    37     -0.352905   3 Ni py               41     -0.343006   3 Ni pz        
    45     -0.318063   3 Ni px              725     -0.249911  78 C  pz        
    35     -0.229494   3 Ni s               671      0.214687  75 C  s         
   731      0.201689  80 H  s               723     -0.195056  78 C  px        

 Vector  863  Occ=0.000000D+00  E= 1.172245D+02
              MO Center=  1.2D-01, -4.5D-01, -8.0D-01, r^2= 3.5D-02
   Bfn.  Coefficient  Atom+Function         Bfn.  Coefficient  Atom+Function  
  ----- ------------  ---------------      ----- ------------  ---------------
    37      1.004485   3 Ni py               40     -0.389513   3 Ni py        
   172     -0.307837  10 C  py               38      0.295845   3 Ni pz        
   142      0.283635   8 C  py               74     -0.281145   4 C  s         
   709     -0.260391  77 C  py              686      0.246027  76 C  s         
     6     -0.244772   1 C  s               716     -0.221946  78 C  s         

 Vector  864  Occ=0.000000D+00  E= 1.172554D+02
              MO Center=  1.2D-01, -4.5D-01, -8.0D-01, r^2= 3.4D-02
   Bfn.  Coefficient  Atom+Function         Bfn.  Coefficient  Atom+Function  
  ----- ------------  ---------------      ----- ------------  ---------------
    36      0.946124   3 Ni px               38     -0.489503   3 Ni pz        
    35     -0.476281   3 Ni s                39     -0.368896   3 Ni px        
   686      0.255589  76 C  s               709     -0.234522  77 C  py        
    81      0.230292   4 C  px              200      0.227176  14 C  s         
   134     -0.225850   8 C  s                82     -0.218074   4 C  py        

 Vector  865  Occ=0.000000D+00  E= 1.186740D+02
              MO Center=  1.2D+00,  1.5D+00, -2.2D+00, r^2= 5.8D-02
   Bfn.  Coefficient  Atom+Function         Bfn.  Coefficient  Atom+Function  
  ----- ------------  ---------------      ----- ------------  ---------------
    17      2.979099   2 O  s                18     -2.299987   2 O  s         
    16     -1.757222   2 O  s                19      1.514119   2 O  s         
    20     -1.251095   2 O  s                21      1.037340   2 O  s         
     6     -0.621962   1 C  s                34     -0.514113   3 Ni s         
    14     -0.505409   1 C  py               15      0.374925   1 C  pz        

 Vector  866  Occ=0.000000D+00  E= 6.702796D+02
              MO Center=  1.2D-01, -4.5D-01, -8.0D-01, r^2= 2.5D-02
   Bfn.  Coefficient  Atom+Function         Bfn.  Coefficient  Atom+Function  
  ----- ------------  ---------------      ----- ------------  ---------------
    32     28.685164   3 Ni s                33    -15.126287   3 Ni s         
    51     -7.282303   3 Ni dxx              54     -7.282044   3 Ni dyy       
    56     -7.282989   3 Ni dzz              31     -4.261474   3 Ni s         
    57      3.300293   3 Ni dxx              60      3.299465   3 Ni dyy       
    62      3.302727   3 Ni dzz              34      0.879903   3 Ni s         


 center of mass
 --------------
 x =   0.05742630 y =  -0.01800451 z =  -0.03569585

 moments of inertia (a.u.)
 ------------------
       25086.918547984602          -0.000000000002           0.000000000000
          -0.000000000002       20889.803430444153           0.000000000001
           0.000000000000           0.000000000001       29516.928180978382

     Multipole analysis of the density
     ---------------------------------

     L   x y z        total         alpha         beta         nuclear
     -   - - -        -----         -----         ----         -------
     0   0 0 0     -0.000000   -172.000000   -172.000000    344.000000

     1   1 0 0     -1.805944      0.272333      0.272333     -2.350611
     1   0 1 0      0.762479     -3.844943     -3.844943      8.452366
     1   0 0 1      1.912584     -6.618659     -6.618659     15.149902

     2   2 0 0   -206.332307  -3634.077966  -3634.077966   7061.823624
     2   1 1 0      5.166875      1.409024      1.409024      2.348827
     2   1 0 1      3.431670    -47.655876    -47.655876     98.743421
     2   0 2 0   -211.425478  -4745.602274  -4745.602274   9279.779071
     2   0 1 1     -2.296263      2.957870      2.957870     -8.212003
     2   0 0 2   -211.658703  -2490.506601  -2490.506601   4769.354499


 Task  times  cpu:     1801.8s     wall:     1801.8s


                                NWChem Input Module
                                -------------------


 Summary of allocated global arrays
-----------------------------------
  No active global arrays


MA_summarize_allocated_blocks: starting scan ...
heap block 'gridpts', handle 81, address 0x5cbc646fb5a0:
	type of elements:		double precision
	number of elements:		203677164
	address of client space:	0x5cbc646fb600
	index for client space:		62105499
	total number of bytes:		1629417416
MA_summarize_allocated_blocks: scan completed: 1 heap block, 0 stack blocks
MA usage statistics:

	allocation statistics:
					      heap	     stack
					      ----	     -----
	current number of blocks	         1	         0
	maximum number of blocks	        37	        58
	current total bytes		1629417416	         0
	maximum total bytes		1649038120	  58811304
	maximum total K-bytes		   1649039	     58812
	maximum total M-bytes		      1650	        59


                                     CITATION
                                     --------
                Please cite the following reference when publishing
                           results obtained with NWChem:

          E. Apra, E. J. Bylaska, W. A. de Jong, N. Govind, K. Kowalski,
       T. P. Straatsma, M. Valiev, H. J. J. van Dam, Y. Alexeev, J. Anchell,
       V. Anisimov, F. W. Aquino, R. Atta-Fynn, J. Autschbach, N. P. Bauman,
     J. C. Becca, D. E. Bernholdt, K. Bhaskaran-Nair, S. Bogatko, P. Borowski,
         J. Boschen, J. Brabec, A. Bruner, E. Cauet, Y. Chen, G. N. Chuev,
      C. J. Cramer, J. Daily, M. J. O. Deegan, T. H. Dunning Jr., M. Dupuis,
   K. G. Dyall, G. I. Fann, S. A. Fischer, A. Fonari, H. Fruchtl, L. Gagliardi,
      J. Garza, N. Gawande, S. Ghosh, K. Glaesemann, A. W. Gotz, J. Hammond,
       V. Helms, E. D. Hermes, K. Hirao, S. Hirata, M. Jacquelin, L. Jensen,
   B. G. Johnson, H. Jonsson, R. A. Kendall, M. Klemm, R. Kobayashi, V. Konkov,
      S. Krishnamoorthy, M. Krishnan, Z. Lin, R. D. Lins, R. J. Littlefield,
      A. J. Logsdail, K. Lopata, W. Ma, A. V. Marenich, J. Martin del Campo,
   D. Mejia-Rodriguez, J. E. Moore, J. M. Mullin, T. Nakajima, D. R. Nascimento,
    J. A. Nichols, P. J. Nichols, J. Nieplocha, A. Otero-de-la-Roza, B. Palmer,
    A. Panyala, T. Pirojsirikul, B. Peng, R. Peverati, J. Pittner, L. Pollack,
   R. M. Richard, P. Sadayappan, G. C. Schatz, W. A. Shelton, D. W. Silverstein,
   D. M. A. Smith, T. A. Soares, D. Song, M. Swart, H. L. Taylor, G. S. Thomas,
            V. Tipparaju, D. G. Truhlar, K. Tsemekhman, T. Van Voorhis,
      A. Vazquez-Mayagoitia, P. Verma, O. Villa, A. Vishnu, K. D. Vogiatzis,
        D. Wang, J. H. Weare, M. J. Williamson, T. L. Windus, K. Wolinski,
        A. T. Wong, Q. Wu, C. Yang, Q. Yu, M. Zacharias, Z. Zhang, Y. Zhao,
                                and R. J. Harrison
                        "NWChem: Past, present, and future
                         J. Chem. Phys. 152, 184102 (2020)
                               doi:10.1063/5.0004997

                                      AUTHORS
                                      -------
  E. Apra, E. J. Bylaska, N. Govind, K. Kowalski, M. Valiev, D. Mejia-Rodriguez,
       A. Kunitsa, N. P. Bauman, A. Panyala, W. A. de Jong, T. P. Straatsma,
   H. J. J. van Dam, D. Wang, T. L. Windus, J. Hammond, J. Autschbach, A. Woods,
    K. Bhaskaran-Nair, J. Brabec, K. Lopata, S. A. Fischer, S. Krishnamoorthy,
     M. Jacquelin, W. Ma, M. Klemm, O. Villa, Y. Chen, V. Anisimov, F. Aquino,
     S. Hirata, M. T. Hackler, E. Hermes, L. Jensen, J. E. Moore, J. C. Becca,
      V. Konjkov, T. Risthaus, M. Malagoli, A. Marenich, A. Otero-de-la-Roza,
        J. Mullin, P. Nichols, R. Peverati, J. Pittner, Y. Zhao, P.-D. Fan,
        A. Fonari, M. J. Williamson, R. J. Harrison, J. R. Rehr, M. Dupuis,
     D. Silverstein, D. M. A. Smith, J. Nieplocha, V. Tipparaju, M. Krishnan,
     B. E. Van Kuiken, A. Vazquez-Mayagoitia, M. Swart, Q. Wu, T. Van Voorhis,
     A. A. Auer, M. Nooijen, L. D. Crosby, E. Brown, G. Cisneros, G. I. Fann,
   H. Fruchtl, J. Garza, K. Hirao, R. A. Kendall, J. A. Nichols, K. Tsemekhman,
    K. Wolinski, J. Anchell, D. E. Bernholdt, P. Borowski, T. Clark, D. Clerc,
   H. Dachsel, M. J. O. Deegan, K. Dyall, D. Elwood, E. Glendening, M. Gutowski,
   A. C. Hess, J. Jaffe, B. G. Johnson, J. Ju, R. Kobayashi, R. Kutteh, Z. Lin,
   R. Littlefield, X. Long, B. Meng, T. Nakajima, S. Niu, L. Pollack, M. Rosing,
   K. Glaesemann, G. Sandrone, M. Stave, H. Taylor, G. Thomas, J. H. van Lenthe,
                               A. T. Wong, Z. Zhang.

 Total times  cpu:     1802.4s     wall:     1802.4s
