 argument  1 = nwchem.in
  NWChem w/ OpenMP: maximum threads =    1
                                         
                                         


             Northwest Computational Chemistry Package (NWChem) 7.2.3
             --------------------------------------------------------


                    Environmental Molecular Sciences Laboratory
                       Pacific Northwest National Laboratory
                                Richland, WA 99352

                              Copyright (c) 1994-2022
                       Pacific Northwest National Laboratory
                            Battelle Memorial Institute

             NWChem is an open-source computational chemistry package
                        distributed under the terms of the
                      Educational Community License (ECL) 2.0
             A copy of the license is included with this distribution
                              in the LICENSE.TXT file

                                  ACKNOWLEDGMENT
                                  --------------

            This software and its documentation were developed at the
            EMSL at Pacific Northwest National Laboratory, a multiprogram
            national laboratory, operated for the U.S. Department of Energy
            by Battelle under Contract Number DE-AC05-76RL01830. Support
            for this work was provided by the Department of Energy Office
            of Biological and Environmental Research, Office of Basic
            Energy Sciences, and the Office of Advanced Scientific Computing.


           Job information
           ---------------

    hostname        = 1285a8f4c29a
    program         = nwchem
    date            = Thu Jul  3 07:59:05 2025

    compiled        = Fri_May_02_22:05:35_2025
    source          = /opt/nwchem
    nwchem branch   = 7.2.3
    nwchem revision = N/A
    ga revision     = 5.9.1
    use scalapack   = T
    input           = nwchem.in
    prefix          = ni_singlepoint.
    data base       = ./ni_singlepoint.db
    status          = startup
    nproc           =        5
    time left       =     -1s



           Memory information
           ------------------

    heap     =    509724442 doubles =     3888.9 Mbytes
    stack    =    509724443 doubles =     3888.9 Mbytes
    global   =    291271111 doubles =     2222.2 Mbytes (distinct from heap & stack)
    total    =   1310719996 doubles =    10000.0 Mbytes
    verify   = yes
    hardfail = no 


           Directory information
           ---------------------

  0 permanent = .
  0 scratch   = .




                                NWChem Input Module
                                -------------------


                          Ni complex single-point energy
                          ------------------------------

 Scaling coordinates for geometry "geometry" by  1.889725989
 (inverse scale =  0.529177249)

 C1  symmetry detected

          ------
          auto-z
          ------
  no constraints, skipping    0.0000000000000000     
  no constraints, skipping    0.0000000000000000     


                             Geometry "geometry" -> ""
                             -------------------------

 Output coordinates in angstroms (scale by  1.889725989 to convert to a.u.)

  No.       Tag          Charge          X              Y              Z
 ---- ---------------- ---------- -------------- -------------- --------------
    1 C                    6.0000     1.39081055     0.84430080    -1.15317400
    2 O                    8.0000     1.27468156     1.58631902    -2.09961224
    3 Ni                  28.0000     0.10237518    -0.42213464    -0.82550448
    4 C                    6.0000    -1.11916543     0.47488800     0.32185555
    5 N                    7.0000    -2.00615191    -0.29551203     0.97383377
    6 N                    7.0000    -1.45907964     1.74516010     0.54644037
    7 C                    6.0000    -3.01752131     0.45275097     1.72082109
    8 C                    6.0000    -1.93600954    -1.72215913     0.99731738
    9 C                    6.0000    -2.70123020     1.89455181     1.31393573
   10 C                    6.0000    -0.77035589     2.89675351     0.05258955
   11 H                    1.0000    -4.02005934     0.13874562     1.42610130
   12 H                    1.0000    -2.90753856     0.28294919     2.79441546
   13 C                    6.0000    -2.52858047    -2.44498396    -0.04407937
   14 C                    6.0000    -1.28562133    -2.34932292     2.06728197
   15 H                    1.0000    -3.47733423     2.33086254     0.68103931
   16 H                    1.0000    -2.54632629     2.55490556     2.16716313
   17 C                    6.0000     0.11661891     3.55221584     0.91162191
   18 C                    6.0000    -1.02359264     3.33879153    -1.24823153
   19 C                    6.0000    -2.42439081    -3.83214393    -0.01132234
   20 C                    6.0000    -3.30432786    -1.76476650    -1.15605014
   21 C                    6.0000    -1.22816171    -3.73737557     2.06964857
   22 C                    6.0000    -0.65512732    -1.55748291     3.19635829
   23 C                    6.0000     0.79093208     4.66395447     0.42002457
   24 C                    6.0000     0.31888913     3.11406122     2.35104390
   25 C                    6.0000    -0.32997213     4.45613652    -1.69496484
   26 C                    6.0000    -2.03719174     2.65407351    -2.14509821
   27 C                    6.0000    -1.78155152    -4.47231212     1.03332269
   28 H                    1.0000    -2.85245311    -4.41806352    -0.81482948
   29 C                    6.0000    -4.80093836    -2.05666487    -1.00767291
   30 C                    6.0000    -2.79920253    -2.16554080    -2.54216967
   31 H                    1.0000    -3.16224626    -0.68664928    -1.05403754
   32 H                    1.0000    -0.72316959    -4.25056703     2.87887404
   33 C                    6.0000     0.81478433    -1.92784816     3.39781602
   34 C                    6.0000    -1.44322919    -1.74618541     4.49544468
   35 H                    1.0000    -0.68666303    -0.49983295     2.92509270
   36 C                    6.0000     0.57470362     5.10757954    -0.87362095
   37 H                    1.0000     1.49395274     5.18746860     1.05646452
   38 C                    6.0000    -0.26247779     4.15444720     3.31417500
   39 C                    6.0000     1.78670601     2.84472941     2.67971033
   40 H                    1.0000    -0.22200887     2.17571022     2.49679890
   41 H                    1.0000    -0.48619272     4.81254235    -2.70503690
   42 C                    6.0000    -1.50321149     2.39659056    -3.55425426
   43 C                    6.0000    -3.32968292     3.47512877    -2.20579827
   44 H                    1.0000    -2.26985320     1.68167802    -1.70515927
   45 H                    1.0000    -1.70265648    -5.55183527     1.03643696
   46 H                    1.0000    -5.17459652    -1.75274428    -0.02754959
   47 H                    1.0000    -4.99895792    -3.12471758    -1.11968425
   48 H                    1.0000    -5.37169390    -1.52679672    -1.77233773
   49 H                    1.0000    -1.72726197    -1.98404867    -2.63674174
   50 H                    1.0000    -3.32288764    -1.59382142    -3.31080523
   51 H                    1.0000    -2.98012271    -3.22439676    -2.73817421
   52 H                    1.0000     1.37498936    -1.84002428     2.46738913
   53 H                    1.0000     0.92004149    -2.95323428     3.75745292
   54 H                    1.0000     1.27194646    -1.26779137     4.13735560
   55 H                    1.0000    -2.49383172    -1.47547685     4.37408848
   56 H                    1.0000    -1.01980953    -1.13497362     5.29449455
   57 H                    1.0000    -1.40873729    -2.78955277     4.81601770
   58 H                    1.0000     1.11472835     5.96959974    -1.24448642
   59 H                    1.0000    -1.31401030     4.36137138     3.10542579
   60 H                    1.0000     0.27932945     5.09878019     3.23004749
   61 H                    1.0000    -0.17660475     3.81055404     4.34689006
   62 H                    1.0000     2.20977319     2.09172431     2.01753170
   63 H                    1.0000     1.88147911     2.49108124     3.70869399
   64 H                    1.0000     2.38618349     3.75229761     2.58530699
   65 H                    1.0000    -0.54533603     1.88179422    -3.51384243
   66 H                    1.0000    -1.36949901     3.33046204    -4.10461957
   67 H                    1.0000    -2.21645748     1.78846724    -4.11471250
   68 H                    1.0000    -3.74939197     3.65372762    -1.21384906
   69 H                    1.0000    -4.08081193     2.96331640    -2.81079561
   70 H                    1.0000    -3.13767190     4.44963147    -2.66039281
   71 N                    7.0000     0.84652055    -1.60288064    -2.01865809
   72 C                    6.0000     4.90217129     1.06438420     1.27905339
   73 C                    6.0000     4.64689525     2.04313700     0.32439461
   74 H                    1.0000     4.24471845    -0.78215222     2.15581227
   75 C                    6.0000     4.03724784    -0.01207480     1.42341071
   76 C                    6.0000     3.51710396     1.95459173    -0.47146724
   77 C                    6.0000     2.63550848     0.88891230    -0.31132259
   78 C                    6.0000     2.90496367    -0.09845988     0.62577012
   79 H                    1.0000     3.29123670     2.70108152    -1.22239827
   80 H                    1.0000     2.22823159    -0.93985408     0.71283670
   81 H                    1.0000     5.78102207     1.14016151     1.90713867
   82 H                    1.0000     5.33148655     2.87354002     0.20409476
   83 C                    6.0000     1.68784420    -2.62087157    -1.60243017
   84 C                    6.0000     2.80573451    -3.06156135    -2.32877917
   85 C                    6.0000     1.40662643    -3.28663809    -0.39489295
   86 C                    6.0000     3.58539211    -4.11421491    -1.86743122
   87 H                    1.0000     3.07872967    -2.57523131    -3.25439091
   88 C                    6.0000     2.18487336    -4.33548648     0.05339527
   89 H                    1.0000     0.52881405    -2.98291322     0.16554618
   90 C                    6.0000     3.28583631    -4.76671607    -0.68212133
   91 H                    1.0000     4.44407188    -4.42540114    -2.45083373
   92 H                    1.0000     1.91781815    -4.83879135     0.97627198
   93 H                    1.0000     3.88819934    -5.59885946    -0.34223230
   94 C                    6.0000     0.99855505    -1.18337770    -3.40008354
   95 H                    1.0000     1.97975647    -0.74493240    -3.62322938
   96 H                    1.0000     0.84660683    -2.03057482    -4.07990448
   97 H                    1.0000     0.25415873    -0.42212095    -3.62918692

      Atomic Mass 
      ----------- 

      C                 12.000000
      O                 15.994910
      Ni                57.935300
      N                 14.003070
      H                  1.007825


 Effective nuclear repulsion energy (a.u.)    7258.5766737155

            Nuclear Dipole moment (a.u.) 
            ----------------------------
        X                 Y               Z
 ---------------- ---------------- ----------------
    -0.0000000000    -0.0000000000     0.0000000000



                                Z-matrix (autoz)
                                -------- 

 Units are Angstrom for bonds and degrees for angles

      Type          Name      I     J     K     L     M      Value
      ----------- --------  ----- ----- ----- ----- ----- ----------
    1 Stretch                  1     2                       1.20823
    2 Stretch                  1     3                       1.83611
    3 Stretch                  1    77                       1.50332
    4 Stretch                  3     4                       1.90085
    5 Stretch                  3    71                       1.83617
    6 Stretch                  4     5                       1.34363
    7 Stretch                  4     6                       1.33401
    8 Stretch                  5     7                       1.46313
    9 Stretch                  5     8                       1.42856
   10 Stretch                  6     9                       1.46776
   11 Stretch                  6    10                       1.42982
   12 Stretch                  7     9                       1.53114
   13 Stretch                  7    11                       1.09112
   14 Stretch                  7    12                       1.09249
   15 Stretch                  8    13                       1.39933
   16 Stretch                  8    14                       1.40042
   17 Stretch                  9    15                       1.09237
   18 Stretch                  9    16                       1.08998
   19 Stretch                 10    17                       1.39796
   20 Stretch                 10    18                       1.39702
   21 Stretch                 13    19                       1.39145
   22 Stretch                 13    20                       1.51689
   23 Stretch                 14    21                       1.38924
   24 Stretch                 14    22                       1.51636
   25 Stretch                 17    23                       1.39008
   26 Stretch                 17    24                       1.51817
   27 Stretch                 18    25                       1.38893
   28 Stretch                 18    26                       1.51677
   29 Stretch                 19    27                       1.38360
   30 Stretch                 19    28                       1.08266
   31 Stretch                 20    29                       1.53201
   32 Stretch                 20    30                       1.52876
   33 Stretch                 20    31                       1.09221
   34 Stretch                 21    27                       1.38576
   35 Stretch                 21    32                       1.08316
   36 Stretch                 22    33                       1.52918
   37 Stretch                 22    34                       1.53112
   38 Stretch                 22    35                       1.09234
   39 Stretch                 23    36                       1.38459
   40 Stretch                 23    37                       1.08322
   41 Stretch                 24    38                       1.53232
   42 Stretch                 24    39                       1.52809
   43 Stretch                 24    40                       1.09285
   44 Stretch                 25    36                       1.38471
   45 Stretch                 25    41                       1.08244
   46 Stretch                 26    42                       1.52878
   47 Stretch                 26    43                       1.53243
   48 Stretch                 26    44                       1.09235
   49 Stretch                 27    45                       1.08241
   50 Stretch                 29    46                       1.09208
   51 Stretch                 29    47                       1.09201
   52 Stretch                 29    48                       1.09144
   53 Stretch                 30    49                       1.09130
   54 Stretch                 30    50                       1.09175
   55 Stretch                 30    51                       1.09194
   56 Stretch                 33    52                       1.08960
   57 Stretch                 33    53                       1.09171
   58 Stretch                 33    54                       1.09160
   59 Stretch                 34    55                       1.09168
   60 Stretch                 34    56                       1.09149
   61 Stretch                 34    57                       1.09205
   62 Stretch                 36    58                       1.08270
   63 Stretch                 38    59                       1.09184
   64 Stretch                 38    60                       1.09197
   65 Stretch                 38    61                       1.09185
   66 Stretch                 39    62                       1.08834
   67 Stretch                 39    63                       1.09218
   68 Stretch                 39    64                       1.09177
   69 Stretch                 42    65                       1.08820
   70 Stretch                 42    66                       1.09220
   71 Stretch                 42    67                       1.09208
   72 Stretch                 43    68                       1.09180
   73 Stretch                 43    69                       1.09186
   74 Stretch                 43    70                       1.09233
   75 Stretch                 71    83                       1.38469
   76 Stretch                 71    94                       1.45170
   77 Stretch                 72    73                       1.39086
   78 Stretch                 72    75                       1.38841
   79 Stretch                 72    81                       1.08287
   80 Stretch                 73    76                       1.38480
   81 Stretch                 73    82                       1.08292
   82 Stretch                 74    75                       1.08281
   83 Stretch                 75    78                       1.38772
   84 Stretch                 76    77                       1.39231
   85 Stretch                 76    79                       1.08266
   86 Stretch                 77    78                       1.38768
   87 Stretch                 78    80                       1.08328
   88 Stretch                 83    84                       1.40409
   89 Stretch                 83    85                       1.40729
   90 Stretch                 84    86                       1.38881
   91 Stretch                 84    87                       1.08065
   92 Stretch                 85    88                       1.38084
   93 Stretch                 85    89                       1.08485
   94 Stretch                 86    90                       1.38580
   95 Stretch                 86    91                       1.08376
   96 Stretch                 88    90                       1.39250
   97 Stretch                 88    92                       1.08459
   98 Stretch                 90    93                       1.08205
   99 Stretch                 94    95                       1.09763
  100 Stretch                 94    96                       1.09681
  101 Stretch                 94    97                       1.08909
  102 Bend                     1     3     4               103.48388
  103 Bend                     1     3    71                92.47510
  104 Bend                     1    77    76               118.85278
  105 Bend                     1    77    78               121.18601
  106 Bend                     2     1     3               119.73170
  107 Bend                     2     1    77               120.00084
  108 Bend                     3     1    77               120.10146
  109 Bend                     3     4     5               116.52181
  110 Bend                     3     4     6               135.62058
  111 Bend                     3    71    83               121.57827
  112 Bend                     3    71    94               118.35729
  113 Bend                     4     3    71               162.96355
  114 Bend                     4     5     7               114.25620
  115 Bend                     4     5     8               123.24138
  116 Bend                     4     6     9               113.61532
  117 Bend                     4     6    10               125.87686
  118 Bend                     5     4     6               107.22224
  119 Bend                     5     7     9               101.71894
  120 Bend                     5     7    11               110.48990
  121 Bend                     5     7    12               110.64857
  122 Bend                     5     8    13               118.87052
  123 Bend                     5     8    14               118.85557
  124 Bend                     6     9     7               102.58771
  125 Bend                     6     9    15               109.81395
  126 Bend                     6     9    16               110.53115
  127 Bend                     6    10    17               118.09991
  128 Bend                     6    10    18               119.28396
  129 Bend                     7     5     8               122.43027
  130 Bend                     7     9    15               112.53903
  131 Bend                     7     9    16               113.06833
  132 Bend                     8    13    19               117.75739
  133 Bend                     8    13    20               122.03779
  134 Bend                     8    14    21               117.90246
  135 Bend                     8    14    22               121.87991
  136 Bend                     9     6    10               120.41614
  137 Bend                     9     7    11               112.89322
  138 Bend                     9     7    12               112.74969
  139 Bend                    10    17    23               117.73949
  140 Bend                    10    17    24               122.12929
  141 Bend                    10    18    25               117.61379
  142 Bend                    10    18    26               121.92976
  143 Bend                    11     7    12               108.25253
  144 Bend                    13     8    14               122.27197
  145 Bend                    13    19    27               120.91864
  146 Bend                    13    19    28               119.50084
  147 Bend                    13    20    29               110.06893
  148 Bend                    13    20    30               112.21772
  149 Bend                    13    20    31               107.91747
  150 Bend                    14    21    27               120.80394
  151 Bend                    14    21    32               119.60002
  152 Bend                    14    22    33               111.79569
  153 Bend                    14    22    34               110.69413
  154 Bend                    14    22    35               107.98102
  155 Bend                    15     9    16               108.21128
  156 Bend                    17    10    18               122.60404
  157 Bend                    17    23    36               120.72446
  158 Bend                    17    23    37               119.57532
  159 Bend                    17    24    38               110.45306
  160 Bend                    17    24    39               112.50565
  161 Bend                    17    24    40               107.95789
  162 Bend                    18    25    36               120.92733
  163 Bend                    18    25    41               119.53394
  164 Bend                    18    26    42               112.80845
  165 Bend                    18    26    43               110.19273
  166 Bend                    18    26    44               107.82128
  167 Bend                    19    13    20               120.17188
  168 Bend                    19    27    21               120.31729
  169 Bend                    19    27    45               119.83400
  170 Bend                    20    29    46               111.60129
  171 Bend                    20    29    47               110.70530
  172 Bend                    20    29    48               110.51800
  173 Bend                    20    30    49               111.07128
  174 Bend                    20    30    50               110.03387
  175 Bend                    20    30    51               111.23676
  176 Bend                    21    14    22               120.21754
  177 Bend                    21    27    45               119.84634
  178 Bend                    22    33    52               111.23481
  179 Bend                    22    33    53               111.31904
  180 Bend                    22    33    54               110.20443
  181 Bend                    22    34    55               111.74475
  182 Bend                    22    34    56               110.63668
  183 Bend                    22    34    57               110.52145
  184 Bend                    23    17    24               120.09874
  185 Bend                    23    36    25               120.36380
  186 Bend                    23    36    58               119.81771
  187 Bend                    24    38    59               111.95637
  188 Bend                    24    38    60               110.51725
  189 Bend                    24    38    61               110.53709
  190 Bend                    24    39    62               111.37556
  191 Bend                    24    39    63               110.06351
  192 Bend                    24    39    64               111.24248
  193 Bend                    25    18    26               120.44417
  194 Bend                    25    36    58               119.81840
  195 Bend                    26    42    65               110.66493
  196 Bend                    26    42    66               111.29870
  197 Bend                    26    42    67               109.79836
  198 Bend                    26    43    68               112.07918
  199 Bend                    26    43    69               110.54953
  200 Bend                    26    43    70               110.25621
  201 Bend                    27    19    28               119.58051
  202 Bend                    27    21    32               119.57844
  203 Bend                    29    20    30               111.13984
  204 Bend                    29    20    31               107.82480
  205 Bend                    30    20    31               107.48622
  206 Bend                    33    22    34               110.67977
  207 Bend                    33    22    35               107.15599
  208 Bend                    34    22    35               108.37115
  209 Bend                    36    23    37               119.70018
  210 Bend                    36    25    41               119.53035
  211 Bend                    38    24    39               110.42119
  212 Bend                    38    24    40               108.14134
  213 Bend                    39    24    40               107.18147
  214 Bend                    42    26    43               110.38490
  215 Bend                    42    26    44               107.19941
  216 Bend                    43    26    44               108.25577
  217 Bend                    46    29    47               107.59000
  218 Bend                    46    29    48               108.34572
  219 Bend                    47    29    48               107.94688
  220 Bend                    49    30    50               108.84827
  221 Bend                    49    30    51               107.96656
  222 Bend                    50    30    51               107.57513
  223 Bend                    52    33    53               107.90469
  224 Bend                    52    33    54               108.32780
  225 Bend                    53    33    54               107.72058
  226 Bend                    55    34    56               108.41218
  227 Bend                    55    34    57               107.45443
  228 Bend                    56    34    57               107.93050
  229 Bend                    59    38    60               107.41148
  230 Bend                    59    38    61               108.43765
  231 Bend                    60    38    61               107.83192
  232 Bend                    62    39    63               108.38865
  233 Bend                    62    39    64               108.00470
  234 Bend                    63    39    64               107.63710
  235 Bend                    65    42    66               108.38768
  236 Bend                    65    42    67               109.30031
  237 Bend                    66    42    67               107.30612
  238 Bend                    68    43    69               108.39986
  239 Bend                    68    43    70               107.44244
  240 Bend                    69    43    70               107.96982
  241 Bend                    71    83    84               123.98567
  242 Bend                    71    83    85               118.96725
  243 Bend                    71    94    95               113.73500
  244 Bend                    71    94    96               110.61553
  245 Bend                    71    94    97               109.30418
  246 Bend                    72    73    76               119.94815
  247 Bend                    72    73    82               119.98910
  248 Bend                    72    75    74               120.15609
  249 Bend                    72    75    78               119.78802
  250 Bend                    73    72    75               120.17346
  251 Bend                    73    72    81               119.85632
  252 Bend                    73    76    77               119.96200
  253 Bend                    73    76    79               121.65052
  254 Bend                    74    75    78               120.05589
  255 Bend                    75    72    81               119.96935
  256 Bend                    75    78    77               120.15182
  257 Bend                    75    78    80               120.78861
  258 Bend                    76    73    82               120.06275
  259 Bend                    76    77    78               119.95556
  260 Bend                    77    76    79               118.38682
  261 Bend                    77    78    80               119.05334
  262 Bend                    83    71    94               115.77606
  263 Bend                    83    84    86               120.86420
  264 Bend                    83    84    87               120.19691
  265 Bend                    83    85    88               121.68740
  266 Bend                    83    85    89               118.19807
  267 Bend                    84    83    85               117.03247
  268 Bend                    84    86    90               121.30951
  269 Bend                    84    86    91               118.92148
  270 Bend                    85    88    90               120.62067
  271 Bend                    85    88    92               119.33730
  272 Bend                    86    84    87               118.93520
  273 Bend                    86    90    88               118.48133
  274 Bend                    86    90    93               120.69310
  275 Bend                    88    85    89               120.06530
  276 Bend                    88    90    93               120.82245
  277 Bend                    90    86    91               119.76899
  278 Bend                    90    88    92               120.02725
  279 Bend                    95    94    96               107.84099
  280 Bend                    95    94    97               106.79979
  281 Bend                    96    94    97               108.35068
  282 Torsion                  1     3     4     5        -165.18832
  283 Torsion                  1     3     4     6          25.35905
  284 Torsion                  1     3    71    83          97.54446
  285 Torsion                  1     3    71    94         -58.21165
  286 Torsion                  1    77    76    73         177.75704
  287 Torsion                  1    77    76    79          -1.95161
  288 Torsion                  1    77    78    75        -177.79157
  289 Torsion                  1    77    78    80           3.10980
  290 Torsion                  2     1     3     4         -90.37985
  291 Torsion                  2     1     3    71          83.60995
  292 Torsion                  2     1    77    76          12.48075
  293 Torsion                  2     1    77    78        -168.38465
  294 Torsion                  3     1    77    76        -172.21403
  295 Torsion                  3     1    77    78           6.92057
  296 Torsion                  3     4     5     7        -173.33669
  297 Torsion                  3     4     5     8           9.68802
  298 Torsion                  3     4     6     9         165.77807
  299 Torsion                  3     4     6    10         -10.72898
  300 Torsion                  3    71    83    84        -143.51065
  301 Torsion                  3    71    83    85          37.92343
  302 Torsion                  3    71    94    95          93.29807
  303 Torsion                  3    71    94    96        -145.16884
  304 Torsion                  3    71    94    97         -25.94785
  305 Torsion                  4     3     1    77          94.30225
  306 Torsion                  4     3    71    83        -102.79185
  307 Torsion                  4     3    71    94         101.45204
  308 Torsion                  4     5     7     9           5.45258
  309 Torsion                  4     5     7    11         125.56143
  310 Torsion                  4     5     7    12        -114.56202
  311 Torsion                  4     5     8    13         -86.08036
  312 Torsion                  4     5     8    14          94.41448
  313 Torsion                  4     6     9     7           7.49467
  314 Torsion                  4     6     9    15        -112.36799
  315 Torsion                  4     6     9    16         128.31429
  316 Torsion                  4     6    10    17         -99.03279
  317 Torsion                  4     6    10    18          82.19860
  318 Torsion                  5     4     3    71          35.73067
  319 Torsion                  5     4     6     9          -4.34843
  320 Torsion                  5     4     6    10         179.14452
  321 Torsion                  5     7     9     6          -7.11147
  322 Torsion                  5     7     9    15         110.83913
  323 Torsion                  5     7     9    16        -126.16892
  324 Torsion                  5     8    13    19         178.79881
  325 Torsion                  5     8    13    20          -3.28663
  326 Torsion                  5     8    14    21        -179.95208
  327 Torsion                  5     8    14    22          -0.06350
  328 Torsion                  6     4     3    71        -133.72196
  329 Torsion                  6     4     5     7          -1.03951
  330 Torsion                  6     4     5     8        -178.01480
  331 Torsion                  6     9     7    11        -125.51354
  332 Torsion                  6     9     7    12         111.41122
  333 Torsion                  6    10    17    23         179.44978
  334 Torsion                  6    10    17    24          -2.62310
  335 Torsion                  6    10    18    25        -179.64867
  336 Torsion                  6    10    18    26           1.62122
  337 Torsion                  7     5     8    13          97.18711
  338 Torsion                  7     5     8    14         -82.31805
  339 Torsion                  7     9     6    10        -175.78705
  340 Torsion                  8     5     7     9        -177.54460
  341 Torsion                  8     5     7    11         -57.43575
  342 Torsion                  8     5     7    12          62.44080
  343 Torsion                  8    13    19    27           1.41597
  344 Torsion                  8    13    19    28        -178.57841
  345 Torsion                  8    13    20    29        -108.90597
  346 Torsion                  8    13    20    30         126.76290
  347 Torsion                  8    13    20    31           8.52177
  348 Torsion                  8    14    21    27           0.92714
  349 Torsion                  8    14    21    32         179.39486
  350 Torsion                  8    14    22    33        -125.64217
  351 Torsion                  8    14    22    34         110.46638
  352 Torsion                  8    14    22    35          -8.01082
  353 Torsion                  9     6    10    17          84.67871
  354 Torsion                  9     6    10    18         -94.08989
  355 Torsion                 10     6     9    15          64.35029
  356 Torsion                 10     6     9    16         -54.96743
  357 Torsion                 10    17    23    36           0.63579
  358 Torsion                 10    17    23    37        -179.28840
  359 Torsion                 10    17    24    38        -110.51045
  360 Torsion                 10    17    24    39         125.59830
  361 Torsion                 10    17    24    40           7.53720
  362 Torsion                 10    18    25    36          -0.26494
  363 Torsion                 10    18    25    41         178.67691
  364 Torsion                 10    18    26    42        -133.31174
  365 Torsion                 10    18    26    43         102.82003
  366 Torsion                 10    18    26    44         -15.13838
  367 Torsion                 11     7     9    15          -7.56294
  368 Torsion                 11     7     9    16         115.42901
  369 Torsion                 12     7     9    15        -130.63818
  370 Torsion                 12     7     9    16          -7.64623
  371 Torsion                 13     8    14    21           0.56042
  372 Torsion                 13     8    14    22        -179.55099
  373 Torsion                 13    19    27    21           0.00491
  374 Torsion                 13    19    27    45        -179.43333
  375 Torsion                 13    20    29    46          56.30700
  376 Torsion                 13    20    29    47         -63.50359
  377 Torsion                 13    20    29    48         176.94673
  378 Torsion                 13    20    30    49         -54.61925
  379 Torsion                 13    20    30    50        -175.21678
  380 Torsion                 13    20    30    51          65.67085
  381 Torsion                 14     8    13    19          -1.71377
  382 Torsion                 14     8    13    20         176.20079
  383 Torsion                 14    21    27    19          -1.21861
  384 Torsion                 14    21    27    45         178.21956
  385 Torsion                 14    22    33    52          53.53012
  386 Torsion                 14    22    33    53         -66.84797
  387 Torsion                 14    22    33    54         173.69431
  388 Torsion                 14    22    34    55         -56.12281
  389 Torsion                 14    22    34    56        -177.02496
  390 Torsion                 14    22    34    57          63.48774
  391 Torsion                 17    10    18    25           1.64079
  392 Torsion                 17    10    18    26        -177.08932
  393 Torsion                 17    23    36    25           0.67096
  394 Torsion                 17    23    36    58        -179.43250
  395 Torsion                 17    24    38    59          55.28102
  396 Torsion                 17    24    38    60         -64.41189
  397 Torsion                 17    24    38    61         176.29017
  398 Torsion                 17    24    39    62         -57.28840
  399 Torsion                 17    24    39    63        -177.52698
  400 Torsion                 17    24    39    64          63.26053
  401 Torsion                 18    10    17    23          -1.82518
  402 Torsion                 18    10    17    24         176.10195
  403 Torsion                 18    25    36    23          -0.86437
  404 Torsion                 18    25    36    58         179.23909
  405 Torsion                 18    26    42    65          51.79516
  406 Torsion                 18    26    42    66         -68.79497
  407 Torsion                 18    26    42    67         172.54005
  408 Torsion                 18    26    43    68         -56.19121
  409 Torsion                 18    26    43    69        -177.24444
  410 Torsion                 18    26    43    70          63.44490
  411 Torsion                 19    13    20    29          68.95935
  412 Torsion                 19    13    20    30         -55.37178
  413 Torsion                 19    13    20    31        -173.61291
  414 Torsion                 19    27    21    32        -179.68666
  415 Torsion                 20    13    19    27        -176.53920
  416 Torsion                 20    13    19    28           3.46643
  417 Torsion                 21    14    22    33          54.24389
  418 Torsion                 21    14    22    34         -69.64757
  419 Torsion                 21    14    22    35         171.87524
  420 Torsion                 21    27    19    28         179.99928
  421 Torsion                 22    14    21    27        -178.96338
  422 Torsion                 22    14    21    32          -0.49566
  423 Torsion                 23    17    24    38          67.36894
  424 Torsion                 23    17    24    39         -56.52231
  425 Torsion                 23    17    24    40        -174.58340
  426 Torsion                 23    36    25    41        -179.80626
  427 Torsion                 24    17    23    36        -177.33522
  428 Torsion                 24    17    23    37           2.74059
  429 Torsion                 25    18    26    42          47.99346
  430 Torsion                 25    18    26    43         -75.87476
  431 Torsion                 25    18    26    44         166.16682
  432 Torsion                 25    36    23    37        -179.40494
  433 Torsion                 26    18    25    36         178.48495
  434 Torsion                 26    18    25    41          -2.57320
  435 Torsion                 28    19    27    45           0.56104
  436 Torsion                 29    20    30    49        -178.35420
  437 Torsion                 29    20    30    50          61.04827
  438 Torsion                 29    20    30    51         -58.06410
  439 Torsion                 30    20    29    46        -178.74170
  440 Torsion                 30    20    29    47          61.44771
  441 Torsion                 30    20    29    48         -58.10198
  442 Torsion                 31    20    29    46         -61.17825
  443 Torsion                 31    20    29    47         179.01117
  444 Torsion                 31    20    29    48          59.46148
  445 Torsion                 31    20    30    49          63.87678
  446 Torsion                 31    20    30    50         -56.72074
  447 Torsion                 31    20    30    51        -175.83311
  448 Torsion                 32    21    27    45          -0.24849
  449 Torsion                 33    22    34    55         179.34783
  450 Torsion                 33    22    34    56          58.44568
  451 Torsion                 33    22    34    57         -61.04163
  452 Torsion                 34    22    33    52         177.42965
  453 Torsion                 34    22    33    53          57.05156
  454 Torsion                 34    22    33    54         -62.40616
  455 Torsion                 35    22    33    52         -64.59504
  456 Torsion                 35    22    33    53         175.02688
  457 Torsion                 35    22    33    54          55.56915
  458 Torsion                 35    22    34    55          62.11708
  459 Torsion                 35    22    34    56         -58.78507
  460 Torsion                 35    22    34    57        -178.27237
  461 Torsion                 37    23    36    58           0.49160
  462 Torsion                 38    24    39    62         178.80268
  463 Torsion                 38    24    39    63          58.56410
  464 Torsion                 38    24    39    64         -60.64838
  465 Torsion                 39    24    38    59        -179.63465
  466 Torsion                 39    24    38    60          60.67244
  467 Torsion                 39    24    38    61         -58.62549
  468 Torsion                 40    24    38    59         -62.65417
  469 Torsion                 40    24    38    60         177.65292
  470 Torsion                 40    24    38    61          58.35499
  471 Torsion                 40    24    39    62          61.22948
  472 Torsion                 40    24    39    63         -59.00910
  473 Torsion                 40    24    39    64        -178.22159
  474 Torsion                 41    25    36    58           0.29720
  475 Torsion                 42    26    43    68         178.54787
  476 Torsion                 42    26    43    69          57.49465
  477 Torsion                 42    26    43    70         -61.81602
  478 Torsion                 43    26    42    65         175.55732
  479 Torsion                 43    26    42    66          54.96720
  480 Torsion                 43    26    42    67         -63.69779
  481 Torsion                 44    26    42    65         -66.74174
  482 Torsion                 44    26    42    66         172.66814
  483 Torsion                 44    26    42    67          54.00315
  484 Torsion                 44    26    43    68          61.49911
  485 Torsion                 44    26    43    69         -59.55412
  486 Torsion                 44    26    43    70        -178.86479
  487 Torsion                 71     3     1    77         -91.70795
  488 Torsion                 71    83    84    86        -178.22285
  489 Torsion                 71    83    84    87           2.48358
  490 Torsion                 71    83    85    88         178.05804
  491 Torsion                 71    83    85    89           0.60948
  492 Torsion                 72    73    76    77           0.25762
  493 Torsion                 72    73    76    79         179.95652
  494 Torsion                 72    75    78    77          -0.14653
  495 Torsion                 72    75    78    80         178.93625
  496 Torsion                 73    72    75    74         179.01540
  497 Torsion                 73    72    75    78          -0.98814
  498 Torsion                 73    76    77    78          -1.38847
  499 Torsion                 74    75    72    81          -0.64364
  500 Torsion                 74    75    78    77         179.84994
  501 Torsion                 74    75    78    80          -1.06728
  502 Torsion                 75    72    73    76           0.93236
  503 Torsion                 75    72    73    82        -179.06975
  504 Torsion                 75    78    77    76           1.33360
  505 Torsion                 76    73    72    81        -179.40821
  506 Torsion                 76    77    78    80        -177.76504
  507 Torsion                 77    76    73    82        -179.74027
  508 Torsion                 78    75    72    81         179.35282
  509 Torsion                 78    77    76    79         178.90288
  510 Torsion                 79    76    73    82          -0.04137
  511 Torsion                 81    72    73    82           0.58968
  512 Torsion                 83    71    94    95         -63.84249
  513 Torsion                 83    71    94    96          57.69060
  514 Torsion                 83    71    94    97         176.91159
  515 Torsion                 83    84    86    90           0.24332
  516 Torsion                 83    84    86    91        -179.69924
  517 Torsion                 83    85    88    90           0.23573
  518 Torsion                 83    85    88    92        -178.36578
  519 Torsion                 84    83    71    94          12.83146
  520 Torsion                 84    83    85    88          -0.60703
  521 Torsion                 84    83    85    89        -178.05559
  522 Torsion                 84    86    90    88          -0.62478
  523 Torsion                 84    86    90    93         178.73878
  524 Torsion                 85    83    71    94        -165.73446
  525 Torsion                 85    83    84    86           0.36860
  526 Torsion                 85    83    84    87        -178.92497
  527 Torsion                 85    88    90    86           0.38679
  528 Torsion                 85    88    90    93        -178.97592
  529 Torsion                 86    90    88    92         178.97866
  530 Torsion                 87    84    86    90         179.54566
  531 Torsion                 87    84    86    91          -0.39691
  532 Torsion                 88    90    86    91         179.31731
  533 Torsion                 89    85    88    90         177.63749
  534 Torsion                 89    85    88    92          -0.96402
  535 Torsion                 91    86    90    93          -1.31913
  536 Torsion                 92    88    90    93          -0.38404


            XYZ format geometry
            -------------------
    97
 geometry
 C                     1.39081055     0.84430080    -1.15317400
 O                     1.27468156     1.58631902    -2.09961224
 Ni                    0.10237518    -0.42213464    -0.82550448
 C                    -1.11916543     0.47488800     0.32185555
 N                    -2.00615191    -0.29551203     0.97383377
 N                    -1.45907964     1.74516010     0.54644037
 C                    -3.01752131     0.45275097     1.72082109
 C                    -1.93600954    -1.72215913     0.99731738
 C                    -2.70123020     1.89455181     1.31393573
 C                    -0.77035589     2.89675351     0.05258955
 H                    -4.02005934     0.13874562     1.42610130
 H                    -2.90753856     0.28294919     2.79441546
 C                    -2.52858047    -2.44498396    -0.04407937
 C                    -1.28562133    -2.34932292     2.06728197
 H                    -3.47733423     2.33086254     0.68103931
 H                    -2.54632629     2.55490556     2.16716313
 C                     0.11661891     3.55221584     0.91162191
 C                    -1.02359264     3.33879153    -1.24823153
 C                    -2.42439081    -3.83214393    -0.01132234
 C                    -3.30432786    -1.76476650    -1.15605014
 C                    -1.22816171    -3.73737557     2.06964857
 C                    -0.65512732    -1.55748291     3.19635829
 C                     0.79093208     4.66395447     0.42002457
 C                     0.31888913     3.11406122     2.35104390
 C                    -0.32997213     4.45613652    -1.69496484
 C                    -2.03719174     2.65407351    -2.14509821
 C                    -1.78155152    -4.47231212     1.03332269
 H                    -2.85245311    -4.41806352    -0.81482948
 C                    -4.80093836    -2.05666487    -1.00767291
 C                    -2.79920253    -2.16554080    -2.54216967
 H                    -3.16224626    -0.68664928    -1.05403754
 H                    -0.72316959    -4.25056703     2.87887404
 C                     0.81478433    -1.92784816     3.39781602
 C                    -1.44322919    -1.74618541     4.49544468
 H                    -0.68666303    -0.49983295     2.92509270
 C                     0.57470362     5.10757954    -0.87362095
 H                     1.49395274     5.18746860     1.05646452
 C                    -0.26247779     4.15444720     3.31417500
 C                     1.78670601     2.84472941     2.67971033
 H                    -0.22200887     2.17571022     2.49679890
 H                    -0.48619272     4.81254235    -2.70503690
 C                    -1.50321149     2.39659056    -3.55425426
 C                    -3.32968292     3.47512877    -2.20579827
 H                    -2.26985320     1.68167802    -1.70515927
 H                    -1.70265648    -5.55183527     1.03643696
 H                    -5.17459652    -1.75274428    -0.02754959
 H                    -4.99895792    -3.12471758    -1.11968425
 H                    -5.37169390    -1.52679672    -1.77233773
 H                    -1.72726197    -1.98404867    -2.63674174
 H                    -3.32288764    -1.59382142    -3.31080523
 H                    -2.98012271    -3.22439676    -2.73817421
 H                     1.37498936    -1.84002428     2.46738913
 H                     0.92004149    -2.95323428     3.75745292
 H                     1.27194646    -1.26779137     4.13735560
 H                    -2.49383172    -1.47547685     4.37408848
 H                    -1.01980953    -1.13497362     5.29449455
 H                    -1.40873729    -2.78955277     4.81601770
 H                     1.11472835     5.96959974    -1.24448642
 H                    -1.31401030     4.36137138     3.10542579
 H                     0.27932945     5.09878019     3.23004749
 H                    -0.17660475     3.81055404     4.34689006
 H                     2.20977319     2.09172431     2.01753170
 H                     1.88147911     2.49108124     3.70869399
 H                     2.38618349     3.75229761     2.58530699
 H                    -0.54533603     1.88179422    -3.51384243
 H                    -1.36949901     3.33046204    -4.10461957
 H                    -2.21645748     1.78846724    -4.11471250
 H                    -3.74939197     3.65372762    -1.21384906
 H                    -4.08081193     2.96331640    -2.81079561
 H                    -3.13767190     4.44963147    -2.66039281
 N                     0.84652055    -1.60288064    -2.01865809
 C                     4.90217129     1.06438420     1.27905339
 C                     4.64689525     2.04313700     0.32439461
 H                     4.24471845    -0.78215222     2.15581227
 C                     4.03724784    -0.01207480     1.42341071
 C                     3.51710396     1.95459173    -0.47146724
 C                     2.63550848     0.88891230    -0.31132259
 C                     2.90496367    -0.09845988     0.62577012
 H                     3.29123670     2.70108152    -1.22239827
 H                     2.22823159    -0.93985408     0.71283670
 H                     5.78102207     1.14016151     1.90713867
 H                     5.33148655     2.87354002     0.20409476
 C                     1.68784420    -2.62087157    -1.60243017
 C                     2.80573451    -3.06156135    -2.32877917
 C                     1.40662643    -3.28663809    -0.39489295
 C                     3.58539211    -4.11421491    -1.86743122
 H                     3.07872967    -2.57523131    -3.25439091
 C                     2.18487336    -4.33548648     0.05339527
 H                     0.52881405    -2.98291322     0.16554618
 C                     3.28583631    -4.76671607    -0.68212133
 H                     4.44407188    -4.42540114    -2.45083373
 H                     1.91781815    -4.83879135     0.97627198
 H                     3.88819934    -5.59885946    -0.34223230
 C                     0.99855505    -1.18337770    -3.40008354
 H                     1.97975647    -0.74493240    -3.62322938
 H                     0.84660683    -2.03057482    -4.07990448
 H                     0.25415873    -0.42212095    -3.62918692

 ==============================================================================
                                internuclear distances
 ------------------------------------------------------------------------------
       center one      |      center two      | atomic units |  angstroms
 ------------------------------------------------------------------------------
    2 O                |   1 C                |     2.28323  |     1.20823
    3 Ni               |   1 C                |     3.46974  |     1.83611
    4 C                |   3 Ni               |     3.59209  |     1.90085
    5 N                |   4 C                |     2.53909  |     1.34363
    6 N                |   4 C                |     2.52091  |     1.33401
    7 C                |   5 N                |     2.76492  |     1.46313
    8 C                |   5 N                |     2.69959  |     1.42856
    9 C                |   6 N                |     2.77365  |     1.46776
    9 C                |   7 C                |     2.89343  |     1.53114
   10 C                |   6 N                |     2.70198  |     1.42982
   11 H                |   7 C                |     2.06192  |     1.09112
   12 H                |   7 C                |     2.06451  |     1.09249
   13 C                |   8 C                |     2.64435  |     1.39933
   14 C                |   8 C                |     2.64640  |     1.40042
   15 H                |   9 C                |     2.06427  |     1.09237
   16 H                |   9 C                |     2.05977  |     1.08998
   17 C                |  10 C                |     2.64176  |     1.39796
   18 C                |  10 C                |     2.63998  |     1.39702
   19 C                |  13 C                |     2.62946  |     1.39145
   20 C                |  13 C                |     2.86651  |     1.51689
   21 C                |  14 C                |     2.62529  |     1.38924
   22 C                |  14 C                |     2.86550  |     1.51636
   23 C                |  17 C                |     2.62687  |     1.39008
   24 C                |  17 C                |     2.86892  |     1.51817
   25 C                |  18 C                |     2.62471  |     1.38893
   26 C                |  18 C                |     2.86628  |     1.51677
   27 C                |  19 C                |     2.61462  |     1.38360
   27 C                |  21 C                |     2.61872  |     1.38576
   28 H                |  19 C                |     2.04594  |     1.08266
   29 C                |  20 C                |     2.89508  |     1.53201
   30 C                |  20 C                |     2.88893  |     1.52876
   31 H                |  20 C                |     2.06398  |     1.09221
   32 H                |  21 C                |     2.04687  |     1.08316
   33 C                |  22 C                |     2.88973  |     1.52918
   34 C                |  22 C                |     2.89340  |     1.53112
   35 H                |  22 C                |     2.06422  |     1.09234
   36 C                |  23 C                |     2.61649  |     1.38459
   36 C                |  25 C                |     2.61672  |     1.38471
   37 H                |  23 C                |     2.04698  |     1.08322
   38 C                |  24 C                |     2.89567  |     1.53232
   39 C                |  24 C                |     2.88766  |     1.52809
   40 H                |  24 C                |     2.06518  |     1.09285
   41 H                |  25 C                |     2.04551  |     1.08244
   42 C                |  26 C                |     2.88897  |     1.52878
   43 C                |  26 C                |     2.89588  |     1.53243
   44 H                |  26 C                |     2.06424  |     1.09235
   45 H                |  27 C                |     2.04545  |     1.08241
   46 H                |  29 C                |     2.06372  |     1.09208
   47 H                |  29 C                |     2.06361  |     1.09201
   48 H                |  29 C                |     2.06252  |     1.09144
   49 H                |  30 C                |     2.06226  |     1.09130
   50 H                |  30 C                |     2.06310  |     1.09175
   51 H                |  30 C                |     2.06346  |     1.09194
   52 H                |  33 C                |     2.05905  |     1.08960
   53 H                |  33 C                |     2.06304  |     1.09171
   54 H                |  33 C                |     2.06283  |     1.09160
   55 H                |  34 C                |     2.06299  |     1.09168
   56 H                |  34 C                |     2.06261  |     1.09149
   57 H                |  34 C                |     2.06367  |     1.09205
   58 H                |  36 C                |     2.04601  |     1.08270
   59 H                |  38 C                |     2.06328  |     1.09184
   60 H                |  38 C                |     2.06352  |     1.09197
   61 H                |  38 C                |     2.06330  |     1.09185
   62 H                |  39 C                |     2.05666  |     1.08834
   63 H                |  39 C                |     2.06392  |     1.09218
   64 H                |  39 C                |     2.06315  |     1.09177
   65 H                |  42 C                |     2.05640  |     1.08820
   66 H                |  42 C                |     2.06396  |     1.09220
   67 H                |  42 C                |     2.06374  |     1.09208
   68 H                |  43 C                |     2.06319  |     1.09180
   69 H                |  43 C                |     2.06333  |     1.09186
   70 H                |  43 C                |     2.06420  |     1.09233
   71 N                |   3 Ni               |     3.46986  |     1.83617
   73 C                |  72 C                |     2.62835  |     1.39086
   75 C                |  72 C                |     2.62372  |     1.38841
   75 C                |  74 H                |     2.04621  |     1.08281
   76 C                |  73 C                |     2.61689  |     1.38480
   77 C                |   1 C                |     2.84087  |     1.50332
   77 C                |  76 C                |     2.63109  |     1.39231
   78 C                |  75 C                |     2.62241  |     1.38772
   78 C                |  77 C                |     2.62233  |     1.38768
   79 H                |  76 C                |     2.04594  |     1.08266
   80 H                |  78 C                |     2.04710  |     1.08328
   81 H                |  72 C                |     2.04633  |     1.08287
   82 H                |  73 C                |     2.04641  |     1.08292
   83 C                |  71 N                |     2.61669  |     1.38469
   84 C                |  83 C                |     2.65335  |     1.40409
   85 C                |  83 C                |     2.65940  |     1.40729
   86 C                |  84 C                |     2.62447  |     1.38881
   87 H                |  84 C                |     2.04213  |     1.08065
   88 C                |  85 C                |     2.60941  |     1.38084
   89 H                |  85 C                |     2.05007  |     1.08485
   90 C                |  86 C                |     2.61879  |     1.38580
   90 C                |  88 C                |     2.63145  |     1.39250
   91 H                |  86 C                |     2.04800  |     1.08376
   92 H                |  88 C                |     2.04958  |     1.08459
   93 H                |  90 C                |     2.04477  |     1.08205
   94 C                |  71 N                |     2.74332  |     1.45170
   95 H                |  94 C                |     2.07421  |     1.09763
   96 H                |  94 C                |     2.07267  |     1.09681
   97 H                |  94 C                |     2.05809  |     1.08909
 ------------------------------------------------------------------------------
                         number of included internuclear distances:        101
 ==============================================================================



 ==============================================================================
                                 internuclear angles
 ------------------------------------------------------------------------------
        center 1       |       center 2       |       center 3       |  degrees
 ------------------------------------------------------------------------------
    2 O                |   1 C                |   3 Ni               |   119.73
    2 O                |   1 C                |  77 C                |   120.00
    3 Ni               |   1 C                |  77 C                |   120.10
    1 C                |   3 Ni               |   4 C                |   103.48
    1 C                |   3 Ni               |  71 N                |    92.48
    4 C                |   3 Ni               |  71 N                |   162.96
    3 Ni               |   4 C                |   5 N                |   116.52
    3 Ni               |   4 C                |   6 N                |   135.62
    5 N                |   4 C                |   6 N                |   107.22
    4 C                |   5 N                |   7 C                |   114.26
    4 C                |   5 N                |   8 C                |   123.24
    7 C                |   5 N                |   8 C                |   122.43
    4 C                |   6 N                |   9 C                |   113.62
    4 C                |   6 N                |  10 C                |   125.88
    9 C                |   6 N                |  10 C                |   120.42
    5 N                |   7 C                |   9 C                |   101.72
    5 N                |   7 C                |  11 H                |   110.49
    5 N                |   7 C                |  12 H                |   110.65
    9 C                |   7 C                |  11 H                |   112.89
    9 C                |   7 C                |  12 H                |   112.75
   11 H                |   7 C                |  12 H                |   108.25
    5 N                |   8 C                |  13 C                |   118.87
    5 N                |   8 C                |  14 C                |   118.86
   13 C                |   8 C                |  14 C                |   122.27
    6 N                |   9 C                |   7 C                |   102.59
    6 N                |   9 C                |  15 H                |   109.81
    6 N                |   9 C                |  16 H                |   110.53
    7 C                |   9 C                |  15 H                |   112.54
    7 C                |   9 C                |  16 H                |   113.07
   15 H                |   9 C                |  16 H                |   108.21
    6 N                |  10 C                |  17 C                |   118.10
    6 N                |  10 C                |  18 C                |   119.28
   17 C                |  10 C                |  18 C                |   122.60
    8 C                |  13 C                |  19 C                |   117.76
    8 C                |  13 C                |  20 C                |   122.04
   19 C                |  13 C                |  20 C                |   120.17
    8 C                |  14 C                |  21 C                |   117.90
    8 C                |  14 C                |  22 C                |   121.88
   21 C                |  14 C                |  22 C                |   120.22
   10 C                |  17 C                |  23 C                |   117.74
   10 C                |  17 C                |  24 C                |   122.13
   23 C                |  17 C                |  24 C                |   120.10
   10 C                |  18 C                |  25 C                |   117.61
   10 C                |  18 C                |  26 C                |   121.93
   25 C                |  18 C                |  26 C                |   120.44
   13 C                |  19 C                |  27 C                |   120.92
   13 C                |  19 C                |  28 H                |   119.50
   27 C                |  19 C                |  28 H                |   119.58
   13 C                |  20 C                |  29 C                |   110.07
   13 C                |  20 C                |  30 C                |   112.22
   13 C                |  20 C                |  31 H                |   107.92
   29 C                |  20 C                |  30 C                |   111.14
   29 C                |  20 C                |  31 H                |   107.82
   30 C                |  20 C                |  31 H                |   107.49
   14 C                |  21 C                |  27 C                |   120.80
   14 C                |  21 C                |  32 H                |   119.60
   27 C                |  21 C                |  32 H                |   119.58
   14 C                |  22 C                |  33 C                |   111.80
   14 C                |  22 C                |  34 C                |   110.69
   14 C                |  22 C                |  35 H                |   107.98
   33 C                |  22 C                |  34 C                |   110.68
   33 C                |  22 C                |  35 H                |   107.16
   34 C                |  22 C                |  35 H                |   108.37
   17 C                |  23 C                |  36 C                |   120.72
   17 C                |  23 C                |  37 H                |   119.58
   36 C                |  23 C                |  37 H                |   119.70
   17 C                |  24 C                |  38 C                |   110.45
   17 C                |  24 C                |  39 C                |   112.51
   17 C                |  24 C                |  40 H                |   107.96
   38 C                |  24 C                |  39 C                |   110.42
   38 C                |  24 C                |  40 H                |   108.14
   39 C                |  24 C                |  40 H                |   107.18
   18 C                |  25 C                |  36 C                |   120.93
   18 C                |  25 C                |  41 H                |   119.53
   36 C                |  25 C                |  41 H                |   119.53
   18 C                |  26 C                |  42 C                |   112.81
   18 C                |  26 C                |  43 C                |   110.19
   18 C                |  26 C                |  44 H                |   107.82
   42 C                |  26 C                |  43 C                |   110.38
   42 C                |  26 C                |  44 H                |   107.20
   43 C                |  26 C                |  44 H                |   108.26
   19 C                |  27 C                |  21 C                |   120.32
   19 C                |  27 C                |  45 H                |   119.83
   21 C                |  27 C                |  45 H                |   119.85
   20 C                |  29 C                |  46 H                |   111.60
   20 C                |  29 C                |  47 H                |   110.71
   20 C                |  29 C                |  48 H                |   110.52
   46 H                |  29 C                |  47 H                |   107.59
   46 H                |  29 C                |  48 H                |   108.35
   47 H                |  29 C                |  48 H                |   107.95
   20 C                |  30 C                |  49 H                |   111.07
   20 C                |  30 C                |  50 H                |   110.03
   20 C                |  30 C                |  51 H                |   111.24
   49 H                |  30 C                |  50 H                |   108.85
   49 H                |  30 C                |  51 H                |   107.97
   50 H                |  30 C                |  51 H                |   107.58
   22 C                |  33 C                |  52 H                |   111.23
   22 C                |  33 C                |  53 H                |   111.32
   22 C                |  33 C                |  54 H                |   110.20
   52 H                |  33 C                |  53 H                |   107.90
   52 H                |  33 C                |  54 H                |   108.33
   53 H                |  33 C                |  54 H                |   107.72
   22 C                |  34 C                |  55 H                |   111.74
   22 C                |  34 C                |  56 H                |   110.64
   22 C                |  34 C                |  57 H                |   110.52
   55 H                |  34 C                |  56 H                |   108.41
   55 H                |  34 C                |  57 H                |   107.45
   56 H                |  34 C                |  57 H                |   107.93
   23 C                |  36 C                |  25 C                |   120.36
   23 C                |  36 C                |  58 H                |   119.82
   25 C                |  36 C                |  58 H                |   119.82
   24 C                |  38 C                |  59 H                |   111.96
   24 C                |  38 C                |  60 H                |   110.52
   24 C                |  38 C                |  61 H                |   110.54
   59 H                |  38 C                |  60 H                |   107.41
   59 H                |  38 C                |  61 H                |   108.44
   60 H                |  38 C                |  61 H                |   107.83
   24 C                |  39 C                |  62 H                |   111.38
   24 C                |  39 C                |  63 H                |   110.06
   24 C                |  39 C                |  64 H                |   111.24
   62 H                |  39 C                |  63 H                |   108.39
   62 H                |  39 C                |  64 H                |   108.00
   63 H                |  39 C                |  64 H                |   107.64
   26 C                |  42 C                |  65 H                |   110.66
   26 C                |  42 C                |  66 H                |   111.30
   26 C                |  42 C                |  67 H                |   109.80
   65 H                |  42 C                |  66 H                |   108.39
   65 H                |  42 C                |  67 H                |   109.30
   66 H                |  42 C                |  67 H                |   107.31
   26 C                |  43 C                |  68 H                |   112.08
   26 C                |  43 C                |  69 H                |   110.55
   26 C                |  43 C                |  70 H                |   110.26
   68 H                |  43 C                |  69 H                |   108.40
   68 H                |  43 C                |  70 H                |   107.44
   69 H                |  43 C                |  70 H                |   107.97
    3 Ni               |  71 N                |  83 C                |   121.58
    3 Ni               |  71 N                |  94 C                |   118.36
   83 C                |  71 N                |  94 C                |   115.78
   73 C                |  72 C                |  75 C                |   120.17
   73 C                |  72 C                |  81 H                |   119.86
   75 C                |  72 C                |  81 H                |   119.97
   72 C                |  73 C                |  76 C                |   119.95
   72 C                |  73 C                |  82 H                |   119.99
   76 C                |  73 C                |  82 H                |   120.06
   72 C                |  75 C                |  74 H                |   120.16
   72 C                |  75 C                |  78 C                |   119.79
   74 H                |  75 C                |  78 C                |   120.06
   73 C                |  76 C                |  77 C                |   119.96
   73 C                |  76 C                |  79 H                |   121.65
   77 C                |  76 C                |  79 H                |   118.39
    1 C                |  77 C                |  76 C                |   118.85
    1 C                |  77 C                |  78 C                |   121.19
   76 C                |  77 C                |  78 C                |   119.96
   75 C                |  78 C                |  77 C                |   120.15
   75 C                |  78 C                |  80 H                |   120.79
   77 C                |  78 C                |  80 H                |   119.05
   71 N                |  83 C                |  84 C                |   123.99
   71 N                |  83 C                |  85 C                |   118.97
   84 C                |  83 C                |  85 C                |   117.03
   83 C                |  84 C                |  86 C                |   120.86
   83 C                |  84 C                |  87 H                |   120.20
   86 C                |  84 C                |  87 H                |   118.94
   83 C                |  85 C                |  88 C                |   121.69
   83 C                |  85 C                |  89 H                |   118.20
   88 C                |  85 C                |  89 H                |   120.07
   84 C                |  86 C                |  90 C                |   121.31
   84 C                |  86 C                |  91 H                |   118.92
   90 C                |  86 C                |  91 H                |   119.77
   85 C                |  88 C                |  90 C                |   120.62
   85 C                |  88 C                |  92 H                |   119.34
   90 C                |  88 C                |  92 H                |   120.03
   86 C                |  90 C                |  88 C                |   118.48
   86 C                |  90 C                |  93 H                |   120.69
   88 C                |  90 C                |  93 H                |   120.82
   71 N                |  94 C                |  95 H                |   113.74
   71 N                |  94 C                |  96 H                |   110.62
   71 N                |  94 C                |  97 H                |   109.30
   95 H                |  94 C                |  96 H                |   107.84
   95 H                |  94 C                |  97 H                |   106.80
   96 H                |  94 C                |  97 H                |   108.35
 ------------------------------------------------------------------------------
                            number of included internuclear angles:        180
 ==============================================================================



                      Basis "ao basis" -> "" (cartesian)
                      -----
  C (Carbon)
  ----------
            Exponent  Coefficients 
       -------------- ---------------------------------------------------------
  1 S  1.23840169E+03  0.005457
  1 S  1.86290050E+02  0.040638
  1 S  4.22511763E+01  0.180256
  1 S  1.16765579E+01  0.463151
  1 S  3.59305065E+00  0.440872

  2 S  4.02451474E-01  1.000000

  3 S  1.30901827E-01  1.000000

  4 P  9.46809706E+00  0.038388
  4 P  2.01035451E+00  0.211170
  4 P  5.47710047E-01  0.513282

  5 P  1.52686138E-01  1.000000

  H (Hydrogen)
  ------------
            Exponent  Coefficients 
       -------------- ---------------------------------------------------------
  1 S  1.30107010E+01  0.019682
  1 S  1.96225720E+00  0.137965
  1 S  4.44537960E-01  0.478319

  2 S  1.21949620E-01  1.000000

  O (Oxygen)
  ----------
            Exponent  Coefficients 
       -------------- ---------------------------------------------------------
  1 S  2.26617678E+03 -0.005343
  1 S  3.40870102E+02 -0.039890
  1 S  7.73631352E+01 -0.178539
  1 S  2.14796449E+01 -0.464277
  1 S  6.65894331E+00 -0.443097

  2 S  8.09759757E-01  1.000000

  3 S  2.55307722E-01  1.000000

  4 P  1.77215043E+01  0.043395
  4 P  3.86355054E+00  0.230941
  4 P  1.04809209E+00  0.513753

  5 P  2.76415444E-01  1.000000

  N (Nitrogen)
  ------------
            Exponent  Coefficients 
       -------------- ---------------------------------------------------------
  1 S  1.71284159E+03 -0.005393
  1 S  2.57648127E+02 -0.040222
  1 S  5.84582459E+01 -0.179311
[...]
  ----- ------------  ---------------      ----- ------------  ---------------
   478     12.219653  84 C  s               507    -11.164049  88 C  s         
   496    -10.585982  86 C  s               518     10.309328  90 C  s         
   202     -9.859849  23 C  s               220     -9.812337  25 C  s         
   157      9.460922  18 C  s               113     -9.372494  10 C  s         
   487      9.383692  85 C  s               148      9.182882  17 C  s         

 Vector  526  Occ=0.000000D+00  E= 1.764500D+00
              MO Center= -3.1D-01, -7.5D-01, -2.7D-01, r^2= 1.5D+01
   Bfn.  Coefficient  Atom+Function         Bfn.  Coefficient  Atom+Function  
  ----- ------------  ---------------      ----- ------------  ---------------
   184    -11.532938  21 C  s               166    -11.326378  19 C  s         
   100     11.198825   8 C  py              126     10.653748  13 C  s         
    95    -10.163459   8 C  s               135     10.101969  14 C  s         
   238     10.057258  27 C  s               220      8.093949  25 C  s         
   202      7.954015  23 C  s               157     -7.300295  18 C  s         

 Vector  527  Occ=0.000000D+00  E= 1.779600D+00
              MO Center=  5.9D-01, -7.4D-01, -1.1D+00, r^2= 9.8D+00
   Bfn.  Coefficient  Atom+Function         Bfn.  Coefficient  Atom+Function  
  ----- ------------  ---------------      ----- ------------  ---------------
    22     18.725361   3 Ni s               469      5.745258  83 C  s         
    23     -5.682341   3 Ni s               518     -5.205164  90 C  s         
   507      5.138478  88 C  s               166      5.076651  19 C  s         
   496      4.851117  86 C  s               487     -4.788304  85 C  s         
    56     -4.618180   3 Ni dzz             443      4.413483  77 C  s         

 Vector  528  Occ=0.000000D+00  E= 1.789015D+00
              MO Center=  3.3D-01,  6.4D-01, -9.4D-01, r^2= 1.3D+01
   Bfn.  Coefficient  Atom+Function         Bfn.  Coefficient  Atom+Function  
  ----- ------------  ---------------      ----- ------------  ---------------
   157     -9.223506  18 C  s               220      9.188606  25 C  s         
   113      9.096906  10 C  s               202      8.838891  23 C  s         
   487      8.680919  85 C  s               118      8.395180  10 C  py        
   148     -7.642856  17 C  s               291     -7.554900  36 C  s         
    22      7.507254   3 Ni s               154      7.289894  17 C  pz        

 Vector  529  Occ=0.000000D+00  E= 1.907395D+00
              MO Center= -1.3D+00,  4.7D-01,  4.6D-01, r^2= 6.6D+00
   Bfn.  Coefficient  Atom+Function         Bfn.  Coefficient  Atom+Function  
  ----- ------------  ---------------      ----- ------------  ---------------
    22      8.221077   3 Ni s               100     -5.410559   8 C  py        
    73     -4.333657   5 N  py               86      4.158318   7 C  s         
   104     -4.138101   9 C  s                68      3.740310   5 N  s         
   507     -3.562127  88 C  s                23     -3.491808   3 Ni s         
   175     -3.304472  20 C  s                81     -3.255516   6 N  px        

 Vector  530  Occ=0.000000D+00  E= 1.939422D+00
              MO Center=  7.2D-01,  4.1D-01, -1.3D+00, r^2= 6.8D+00
   Bfn.  Coefficient  Atom+Function         Bfn.  Coefficient  Atom+Function  
  ----- ------------  ---------------      ----- ------------  ---------------
    22     16.981140   3 Ni s                23     -6.948214   3 Ni s         
    12     -5.706229   2 O  s               487      5.108162  85 C  s         
   113     -4.778502  10 C  s                54     -4.189178   3 Ni dyy       
    56     -3.973591   3 Ni dzz             157      3.547308  18 C  s         
   507     -3.492695  88 C  s                51     -3.387478   3 Ni dxx       

 Vector  531  Occ=0.000000D+00  E= 2.872812D+00
              MO Center=  6.7D-02, -3.5D-01, -9.9D-01, r^2= 2.7D+00
   Bfn.  Coefficient  Atom+Function         Bfn.  Coefficient  Atom+Function  
  ----- ------------  ---------------      ----- ------------  ---------------
    22     10.401018   3 Ni s                21      5.713366   3 Ni s         
    23     -5.201648   3 Ni s                20     -3.100276   3 Ni s         
    45     -2.759231   3 Ni dxx              48     -2.761880   3 Ni dyy       
    50     -2.754756   3 Ni dzz             487      1.960390  85 C  s         
    34      1.948773   3 Ni py               56     -1.459062   3 Ni dzz       

 Vector  532  Occ=0.000000D+00  E= 3.117220D+00
              MO Center=  2.8D-01, -4.8D-01, -6.5D-01, r^2= 1.4D+00
   Bfn.  Coefficient  Atom+Function         Bfn.  Coefficient  Atom+Function  
  ----- ------------  ---------------      ----- ------------  ---------------
    22      5.742926   3 Ni s                21      1.826256   3 Ni s         
   487      1.390220  85 C  s                23     -1.341050   3 Ni s         
   447      1.271325  77 C  px               20     -1.253602   3 Ni s         
    33      1.221853   3 Ni px                7      1.175009   1 C  px        
   462     -1.115886  80 H  s                50     -1.084908   3 Ni dzz       

 Vector  533  Occ=0.000000D+00  E= 3.282701D+00
              MO Center=  2.2D-01, -3.7D-01, -8.6D-01, r^2= 1.3D+00
   Bfn.  Coefficient  Atom+Function         Bfn.  Coefficient  Atom+Function  
  ----- ------------  ---------------      ----- ------------  ---------------
   448     -2.356956  77 C  py              434      2.302496  76 C  s         
   452     -1.805713  78 C  s                 8      1.730297   1 C  py        
    31      1.298141   3 Ni py                3     -1.257352   1 C  s         
    22      1.167491   3 Ni s               447     -1.159827  77 C  px        
    28     -1.074379   3 Ni py              449      1.054024  77 C  pz        

 Vector  534  Occ=0.000000D+00  E= 3.362500D+00
              MO Center=  8.3D-02, -4.6D-01, -8.0D-01, r^2= 1.3D+00
   Bfn.  Coefficient  Atom+Function         Bfn.  Coefficient  Atom+Function  
  ----- ------------  ---------------      ----- ------------  ---------------
    64      1.574088   4 C  py              487      1.490386  85 C  s         
   475     -1.443689  83 C  pz               77     -1.340752   6 N  s         
    63     -1.264031   4 C  px              478     -1.161954  84 C  s         
    30     -1.054811   3 Ni px               32      0.999449   3 Ni pz        
   473      0.993156  83 C  px               65      0.962065   4 C  pz        

 Vector  535  Occ=0.000000D+00  E= 4.763711D+00
              MO Center=  1.0D-01, -4.2D-01, -8.2D-01, r^2= 6.3D-01
   Bfn.  Coefficient  Atom+Function         Bfn.  Coefficient  Atom+Function  
  ----- ------------  ---------------      ----- ------------  ---------------
    46      1.060192   3 Ni dxy              49      0.902485   3 Ni dyz       
    45     -0.892039   3 Ni dxx              40     -0.849225   3 Ni dxy       
   487      0.729212  85 C  s                22      0.715657   3 Ni s         
    43     -0.718114   3 Ni dyz              39      0.642048   3 Ni dxx       
    50      0.615950   3 Ni dzz              59     -0.615809   4 C  s         

 Vector  536  Occ=0.000000D+00  E= 4.799467D+00
              MO Center=  9.7D-02, -4.5D-01, -8.1D-01, r^2= 6.7D-01
   Bfn.  Coefficient  Atom+Function         Bfn.  Coefficient  Atom+Function  
  ----- ------------  ---------------      ----- ------------  ---------------
    95      1.389131   8 C  s               443      1.335751  77 C  s         
    49     -1.226270   3 Ni dyz               3     -1.139958   1 C  s         
     9     -1.101934   1 C  pz               43      0.968042   3 Ni dyz       
   447     -0.951686  77 C  px              135     -0.904449  14 C  s         
    45     -0.861021   3 Ni dxx               7     -0.819430   1 C  px        

 Vector  537  Occ=0.000000D+00  E= 4.827129D+00
              MO Center=  1.1D-01, -4.1D-01, -8.4D-01, r^2= 6.5D-01
   Bfn.  Coefficient  Atom+Function         Bfn.  Coefficient  Atom+Function  
  ----- ------------  ---------------      ----- ------------  ---------------
    64      1.292623   4 C  py               48      1.165211   3 Ni dyy       
    68      1.077467   5 N  s                22     -1.058072   3 Ni s         
     3      0.912807   1 C  s                77     -0.901920   6 N  s         
    42     -0.817497   3 Ni dyy              56      0.801681   3 Ni dzz       
    50     -0.791390   3 Ni dzz              33     -0.775137   3 Ni px        

 Vector  538  Occ=0.000000D+00  E= 4.853758D+00
              MO Center=  7.9D-02, -4.4D-01, -8.2D-01, r^2= 6.8D-01
   Bfn.  Coefficient  Atom+Function         Bfn.  Coefficient  Atom+Function  
  ----- ------------  ---------------      ----- ------------  ---------------
    22      4.124668   3 Ni s                47      1.589008   3 Ni dxz       
     3     -1.291416   1 C  s                46     -1.237671   3 Ni dxy       
    41     -1.230670   3 Ni dxz              34      1.148531   3 Ni py        
    53     -1.121567   3 Ni dxz              40      0.960790   3 Ni dxy       
    52      0.864485   3 Ni dxy              56     -0.848058   3 Ni dzz       

 Vector  539  Occ=0.000000D+00  E= 5.047458D+00
              MO Center=  1.1D-01, -4.3D-01, -8.3D-01, r^2= 6.9D-01
   Bfn.  Coefficient  Atom+Function         Bfn.  Coefficient  Atom+Function  
  ----- ------------  ---------------      ----- ------------  ---------------
    22      1.792509   3 Ni s                49     -1.396175   3 Ni dyz       
    46      1.370256   3 Ni dxy              55      1.344661   3 Ni dyz       
    52     -1.319521   3 Ni dxy              47      1.087347   3 Ni dxz       
    53     -1.039074   3 Ni dxz              43      1.019431   3 Ni dyz       
    40     -0.999118   3 Ni dxy              63     -0.901419   4 C  px        

 Vector  540  Occ=0.000000D+00  E= 1.021304D+01
              MO Center=  1.1D-01, -4.3D-01, -8.3D-01, r^2= 6.5D-01
   Bfn.  Coefficient  Atom+Function         Bfn.  Coefficient  Atom+Function  
  ----- ------------  ---------------      ----- ------------  ---------------
    21     27.757502   3 Ni s                20    -17.516548   3 Ni s         
    45     -7.576874   3 Ni dxx              48     -7.570610   3 Ni dyy       
    50     -7.530046   3 Ni dzz              22      4.581678   3 Ni s         
    23     -2.011649   3 Ni s                19      1.509406   3 Ni s         
    56     -0.712656   3 Ni dzz              34      0.692500   3 Ni py        

 Vector  541  Occ=0.000000D+00  E= 4.989797D+01
              MO Center=  1.0D-01, -4.2D-01, -8.3D-01, r^2= 1.1D-01
   Bfn.  Coefficient  Atom+Function         Bfn.  Coefficient  Atom+Function  
  ----- ------------  ---------------      ----- ------------  ---------------
    20     21.423250   3 Ni s                21    -20.713779   3 Ni s         
    45      5.160713   3 Ni dxx              48      5.158133   3 Ni dyy       
    50      5.149300   3 Ni dzz              19     -4.352387   3 Ni s         
    39     -2.734551   3 Ni dxx              42     -2.733791   3 Ni dyy       
    44     -2.730808   3 Ni dzz              22     -1.989940   3 Ni s         

 Vector  542  Occ=0.000000D+00  E= 1.173820D+02
              MO Center=  1.0D-01, -4.2D-01, -8.3D-01, r^2= 2.9D-02
   Bfn.  Coefficient  Atom+Function         Bfn.  Coefficient  Atom+Function  
  ----- ------------  ---------------      ----- ------------  ---------------
    26      0.835230   3 Ni pz               24      0.541061   3 Ni px        
    25     -0.379109   3 Ni py               29     -0.316596   3 Ni pz        
    27     -0.205013   3 Ni px               22     -0.177173   3 Ni s         
    32      0.164764   3 Ni pz               28      0.143692   3 Ni py        
    30      0.106845   3 Ni px               33     -0.089657   3 Ni px        

 Vector  543  Occ=0.000000D+00  E= 1.175605D+02
              MO Center=  1.0D-01, -4.2D-01, -8.3D-01, r^2= 3.1D-02
   Bfn.  Coefficient  Atom+Function         Bfn.  Coefficient  Atom+Function  
  ----- ------------  ---------------      ----- ------------  ---------------
    25      0.949789   3 Ni py               24      0.465730   3 Ni px        
    28     -0.366846   3 Ni py               31      0.202870   3 Ni py        
   448     -0.198042  77 C  py              434      0.188402  76 C  s         
    27     -0.179882   3 Ni px              452     -0.157597  78 C  s         
     8      0.148792   1 C  py               26      0.129395   3 Ni pz        

 Vector  544  Occ=0.000000D+00  E= 1.175909D+02
              MO Center=  1.0D-01, -4.2D-01, -8.3D-01, r^2= 3.1D-02
   Bfn.  Coefficient  Atom+Function         Bfn.  Coefficient  Atom+Function  
  ----- ------------  ---------------      ----- ------------  ---------------
    24      0.791138   3 Ni px               26     -0.648496   3 Ni pz        
    27     -0.307087   3 Ni px               25     -0.299582   3 Ni py        
    29      0.251791   3 Ni pz               30      0.172340   3 Ni px        
    32     -0.141244   3 Ni pz               64     -0.129724   4 C  py        
    28      0.116251   3 Ni py               77      0.114080   6 N  s         

 Vector  545  Occ=0.000000D+00  E= 6.766356D+02
              MO Center=  1.0D-01, -4.2D-01, -8.3D-01, r^2= 2.3D-02
   Bfn.  Coefficient  Atom+Function         Bfn.  Coefficient  Atom+Function  
  ----- ------------  ---------------      ----- ------------  ---------------
    20     28.868904   3 Ni s                21    -15.339598   3 Ni s         
    39     -7.285685   3 Ni dxx              42     -7.285607   3 Ni dyy       
    44     -7.286418   3 Ni dzz              19     -4.275537   3 Ni s         
    45      3.404639   3 Ni dxx              48      3.404341   3 Ni dyy       
    50      3.407118   3 Ni dzz              54      0.117635   3 Ni dyy       


 center of mass
 --------------
 x =   0.05568456 y =  -0.01973251 z =  -0.03661653

 moments of inertia (a.u.)
 ------------------
       25419.641587811861          -0.000000000001           0.000000000000
          -0.000000000001       20655.612440497305           0.000000000001
           0.000000000000           0.000000000001       29308.212367226577

     Multipole analysis of the density
     ---------------------------------

     L   x y z        total         alpha         beta         nuclear
     -   - - -        -----         -----         ----         -------
     0   0 0 0      0.000000   -172.000000   -172.000000    344.000000

     1   1 0 0     -1.957754     -0.011572     -0.011572     -1.934610
     1   0 1 0      0.916252     -3.530468     -3.530468      7.977188
     1   0 0 1      2.062427     -6.768673     -6.768673     15.599773

     2   2 0 0   -203.254964  -3527.372639  -3527.372639   6851.490313
     2   1 1 0      4.737441      3.111460      3.111460     -1.485480
     2   1 0 1      3.618043    -46.066460    -46.066460     95.750963
     2   0 2 0   -209.491307  -4793.051587  -4793.051587   9376.611866
     2   0 1 1     -2.623769      3.267529      3.267529     -9.158827
     2   0 0 2   -207.326793  -2530.405682  -2530.405682   4853.484570


 Task  times  cpu:     2786.8s     wall:     2786.8s


                                NWChem Input Module
                                -------------------


 Summary of allocated global arrays
-----------------------------------
  No active global arrays


MA_summarize_allocated_blocks: starting scan ...
heap block 'gridpts', handle 109, address 0x5af7127655e0:
	type of elements:		double precision
	number of elements:		203683869
	address of client space:	0x5af712765640
	index for client space:		81506723
	total number of bytes:		1629471056
MA_summarize_allocated_blocks: scan completed: 1 heap block, 0 stack blocks
MA usage statistics:

	allocation statistics:
					      heap	     stack
					      ----	     -----
	current number of blocks	         1	         0
	maximum number of blocks	        34	        58
	current total bytes		1629471056	         0
	maximum total bytes		1648842008	  47353272
	maximum total K-bytes		   1648843	     47354
	maximum total M-bytes		      1649	        48


                                     CITATION
                                     --------
                Please cite the following reference when publishing
                           results obtained with NWChem:

          E. Apra, E. J. Bylaska, W. A. de Jong, N. Govind, K. Kowalski,
       T. P. Straatsma, M. Valiev, H. J. J. van Dam, Y. Alexeev, J. Anchell,
       V. Anisimov, F. W. Aquino, R. Atta-Fynn, J. Autschbach, N. P. Bauman,
     J. C. Becca, D. E. Bernholdt, K. Bhaskaran-Nair, S. Bogatko, P. Borowski,
         J. Boschen, J. Brabec, A. Bruner, E. Cauet, Y. Chen, G. N. Chuev,
      C. J. Cramer, J. Daily, M. J. O. Deegan, T. H. Dunning Jr., M. Dupuis,
   K. G. Dyall, G. I. Fann, S. A. Fischer, A. Fonari, H. Fruchtl, L. Gagliardi,
      J. Garza, N. Gawande, S. Ghosh, K. Glaesemann, A. W. Gotz, J. Hammond,
       V. Helms, E. D. Hermes, K. Hirao, S. Hirata, M. Jacquelin, L. Jensen,
   B. G. Johnson, H. Jonsson, R. A. Kendall, M. Klemm, R. Kobayashi, V. Konkov,
      S. Krishnamoorthy, M. Krishnan, Z. Lin, R. D. Lins, R. J. Littlefield,
      A. J. Logsdail, K. Lopata, W. Ma, A. V. Marenich, J. Martin del Campo,
   D. Mejia-Rodriguez, J. E. Moore, J. M. Mullin, T. Nakajima, D. R. Nascimento,
    J. A. Nichols, P. J. Nichols, J. Nieplocha, A. Otero-de-la-Roza, B. Palmer,
    A. Panyala, T. Pirojsirikul, B. Peng, R. Peverati, J. Pittner, L. Pollack,
   R. M. Richard, P. Sadayappan, G. C. Schatz, W. A. Shelton, D. W. Silverstein,
   D. M. A. Smith, T. A. Soares, D. Song, M. Swart, H. L. Taylor, G. S. Thomas,
            V. Tipparaju, D. G. Truhlar, K. Tsemekhman, T. Van Voorhis,
      A. Vazquez-Mayagoitia, P. Verma, O. Villa, A. Vishnu, K. D. Vogiatzis,
        D. Wang, J. H. Weare, M. J. Williamson, T. L. Windus, K. Wolinski,
        A. T. Wong, Q. Wu, C. Yang, Q. Yu, M. Zacharias, Z. Zhang, Y. Zhao,
                                and R. J. Harrison
                        "NWChem: Past, present, and future
                         J. Chem. Phys. 152, 184102 (2020)
                               doi:10.1063/5.0004997

                                      AUTHORS
                                      -------
  E. Apra, E. J. Bylaska, N. Govind, K. Kowalski, M. Valiev, D. Mejia-Rodriguez,
       A. Kunitsa, N. P. Bauman, A. Panyala, W. A. de Jong, T. P. Straatsma,
   H. J. J. van Dam, D. Wang, T. L. Windus, J. Hammond, J. Autschbach, A. Woods,
    K. Bhaskaran-Nair, J. Brabec, K. Lopata, S. A. Fischer, S. Krishnamoorthy,
     M. Jacquelin, W. Ma, M. Klemm, O. Villa, Y. Chen, V. Anisimov, F. Aquino,
     S. Hirata, M. T. Hackler, E. Hermes, L. Jensen, J. E. Moore, J. C. Becca,
      V. Konjkov, T. Risthaus, M. Malagoli, A. Marenich, A. Otero-de-la-Roza,
        J. Mullin, P. Nichols, R. Peverati, J. Pittner, Y. Zhao, P.-D. Fan,
        A. Fonari, M. J. Williamson, R. J. Harrison, J. R. Rehr, M. Dupuis,
     D. Silverstein, D. M. A. Smith, J. Nieplocha, V. Tipparaju, M. Krishnan,
     B. E. Van Kuiken, A. Vazquez-Mayagoitia, M. Swart, Q. Wu, T. Van Voorhis,
     A. A. Auer, M. Nooijen, L. D. Crosby, E. Brown, G. Cisneros, G. I. Fann,
   H. Fruchtl, J. Garza, K. Hirao, R. A. Kendall, J. A. Nichols, K. Tsemekhman,
    K. Wolinski, J. Anchell, D. E. Bernholdt, P. Borowski, T. Clark, D. Clerc,
   H. Dachsel, M. J. O. Deegan, K. Dyall, D. Elwood, E. Glendening, M. Gutowski,
   A. C. Hess, J. Jaffe, B. G. Johnson, J. Ju, R. Kobayashi, R. Kutteh, Z. Lin,
   R. Littlefield, X. Long, B. Meng, T. Nakajima, S. Niu, L. Pollack, M. Rosing,
   K. Glaesemann, G. Sandrone, M. Stave, H. Taylor, G. Thomas, J. H. van Lenthe,
                               A. T. Wong, Z. Zhang.

 Total times  cpu:     2787.3s     wall:     2787.3s
