 argument  1 = nwchem.in
  NWChem w/ OpenMP: maximum threads =    1
                                         
                                         


             Northwest Computational Chemistry Package (NWChem) 7.2.3
             --------------------------------------------------------


                    Environmental Molecular Sciences Laboratory
                       Pacific Northwest National Laboratory
                                Richland, WA 99352

                              Copyright (c) 1994-2022
                       Pacific Northwest National Laboratory
                            Battelle Memorial Institute

             NWChem is an open-source computational chemistry package
                        distributed under the terms of the
                      Educational Community License (ECL) 2.0
             A copy of the license is included with this distribution
                              in the LICENSE.TXT file

                                  ACKNOWLEDGMENT
                                  --------------

            This software and its documentation were developed at the
            EMSL at Pacific Northwest National Laboratory, a multiprogram
            national laboratory, operated for the U.S. Department of Energy
            by Battelle under Contract Number DE-AC05-76RL01830. Support
            for this work was provided by the Department of Energy Office
            of Biological and Environmental Research, Office of Basic
            Energy Sciences, and the Office of Advanced Scientific Computing.


           Job information
           ---------------

    hostname        = c51fc405c5f4
    program         = nwchem
    date            = Thu Jul  3 12:38:40 2025

    compiled        = Fri_May_02_22:05:35_2025
    source          = /opt/nwchem
    nwchem branch   = 7.2.3
    nwchem revision = N/A
    ga revision     = 5.9.1
    use scalapack   = T
    input           = nwchem.in
    prefix          = ni_singlepoint.
    data base       = ./ni_singlepoint.db
    status          = startup
    nproc           =        5
    time left       =     -1s



           Memory information
           ------------------

    heap     =    509724440 doubles =     3888.9 Mbytes
    stack    =    509724441 doubles =     3888.9 Mbytes
    global   =    291271111 doubles =     2222.2 Mbytes (distinct from heap & stack)
    total    =   1310719992 doubles =    10000.0 Mbytes
    verify   = yes
    hardfail = no 


           Directory information
           ---------------------

  0 permanent = .
  0 scratch   = .




                                NWChem Input Module
                                -------------------


                          Ni complex single-point energy
                          ------------------------------

 Scaling coordinates for geometry "geometry" by  1.889725989
 (inverse scale =  0.529177249)

 C1  symmetry detected

          ------
          auto-z
          ------
  no constraints, skipping    0.0000000000000000     
  no constraints, skipping    0.0000000000000000     


                             Geometry "geometry" -> ""
                             -------------------------

 Output coordinates in angstroms (scale by  1.889725989 to convert to a.u.)

  No.       Tag          Charge          X              Y              Z
 ---- ---------------- ---------- -------------- -------------- --------------
    1 C                    6.0000     1.42256756     0.84264145    -1.13109516
    2 O                    8.0000     1.33931120     1.63387577    -2.03977498
    3 Ni                  28.0000     0.08324521    -0.38169610    -0.85350783
    4 C                    6.0000    -1.07140675     0.54265071     0.32938490
    5 N                    7.0000    -1.94005125    -0.20759365     1.02783189
    6 N                    7.0000    -1.38237587     1.82090775     0.54832620
    7 C                    6.0000    -2.92531812     0.56528435     1.78518495
    8 C                    6.0000    -1.89324253    -1.63579357     1.06693677
    9 C                    6.0000    -2.58085127     2.00026308     1.37646671
   10 C                    6.0000    -0.68933662     2.95698271     0.02305564
   11 H                    1.0000    -3.93758809     0.27477973     1.49988394
   12 H                    1.0000    -2.80963688     0.39437959     2.85694120
   13 C                    6.0000    -2.47964471    -2.36353626     0.02449187
   14 C                    6.0000    -1.26719913    -2.26146089     2.15322991
   15 H                    1.0000    -3.37126976     2.47127451     0.78847559
   16 H                    1.0000    -2.36220740     2.64245146     2.22912237
   17 C                    6.0000     0.24534995     3.59800438     0.84201918
   18 C                    6.0000    -0.98297250     3.39872363    -1.26875645
   19 C                    6.0000    -2.40925832    -3.75208592     0.08328096
   20 C                    6.0000    -3.22178364    -1.68767181    -1.11341739
   21 C                    6.0000    -1.24771898    -3.65030833     2.18202178
   22 C                    6.0000    -0.61152821    -1.46894923     3.26790919
   23 C                    6.0000     0.91639817     4.69805465     0.32080951
   24 C                    6.0000     0.49168860     3.16466895     2.27592463
   25 C                    6.0000    -0.29475758     4.50772580    -1.74413348
   26 C                    6.0000    -2.02302881     2.71489185    -2.13447392
   27 C                    6.0000    -1.80552003    -4.38978342     1.15188150
   28 H                    1.0000    -2.83204148    -4.34170024    -0.71983042
   29 C                    6.0000    -4.73248017    -1.84500129    -0.91229204
   30 C                    6.0000    -2.79418533    -2.20976469    -2.48527147
   31 H                    1.0000    -2.98824567    -0.62107715    -1.08231241
   32 H                    1.0000    -0.76683044    -4.16152154     3.00694887
   33 C                    6.0000     0.82423550    -1.93150673     3.52541296
   34 C                    6.0000    -1.43529650    -1.55240709     4.55631514
   35 H                    1.0000    -0.56394757    -0.42369055     2.95306287
   36 C                    6.0000     0.65133185     5.14695774    -0.96182532
   37 H                    1.0000     1.65443660     5.21030501     0.92560901
   38 C                    6.0000    -0.11460931     4.18582953     3.24538309
   39 C                    6.0000     1.97283255     2.95492877     2.58937573
   40 H                    1.0000    -0.00992114     2.20559665     2.42877372
   41 H                    1.0000    -0.48691155     4.86547573    -2.74751592
   42 C                    6.0000    -1.51956254     2.45765197    -3.55498676
   43 C                    6.0000    -3.31852799     3.53234258    -2.16123721
   44 H                    1.0000    -2.24187596     1.74235675    -1.68835504
   45 H                    1.0000    -1.75556314    -5.47077721     1.17580800
   46 H                    1.0000    -5.05422716    -1.44968924     0.05350660
   47 H                    1.0000    -5.01422510    -2.89963865    -0.94724962
   48 H                    1.0000    -5.28075255    -1.32224402    -1.69797304
   49 H                    1.0000    -1.71209159    -2.14242499    -2.60958336
   50 H                    1.0000    -3.27427066    -1.62341066    -3.27112264
   51 H                    1.0000    -3.09200283    -3.25065020    -2.62640528
   52 H                    1.0000     1.40542552    -1.96083007     2.60375300
   53 H                    1.0000     0.84521329    -2.92971324     3.96699757
   54 H                    1.0000     1.31937633    -1.25248467     4.22191562
   55 H                    1.0000    -2.46346344    -1.21904596     4.40559305
   56 H                    1.0000    -0.98615892    -0.94009120     5.34047752
   57 H                    1.0000    -1.47593962    -2.58286707     4.91571913
   58 H                    1.0000     1.18736257     6.00146643    -1.35508906
   59 H                    1.0000    -1.17262635     4.36362445     3.04390823
   60 H                    1.0000     0.39825094     5.14563698     3.15453927
   61 H                    1.0000    -0.01156682     3.84574663     4.27773353
   62 H                    1.0000     2.42330664     2.22156707     1.92270244
   63 H                    1.0000     2.08942951     2.60344051     3.61672140
   64 H                    1.0000     2.53322789     3.88729962     2.49666829
   65 H                    1.0000    -0.55253528     1.95736915    -3.53371590
   66 H                    1.0000    -1.41227145     3.39023682    -4.11321807
   67 H                    1.0000    -2.23487912     1.83542059    -4.09677471
   68 H                    1.0000    -3.71537891     3.70185532    -1.15831789
   69 H                    1.0000    -4.08262663     3.02227987    -2.75130975
   70 H                    1.0000    -3.14090060     4.51097739    -2.61278890
   71 N                    7.0000     0.77235843    -1.57445809    -2.07146721
   72 C                    6.0000     4.97862915     0.66641643     1.24111991
   73 C                    6.0000     4.82418770     1.66621985     0.28637812
   74 H                    1.0000     4.11182581    -1.07437182     2.15274548
   75 C                    6.0000     3.98558583    -0.28692472     1.42016514
   76 C                    6.0000     3.67372100     1.71693540    -0.48327322
   77 C                    6.0000     2.67210800     0.76785166    -0.29809077
   78 C                    6.0000     2.83425663    -0.23390094     0.64818904
   79 H                    1.0000     3.52599040     2.48340813    -1.23350288
   80 H                    1.0000     2.05754995    -0.98081786     0.75916249
   81 H                    1.0000     5.87975340     0.62711849     1.84027648
   82 H                    1.0000     5.60569008     2.40198162     0.14366614
   83 C                    6.0000     1.47294956    -2.69791378    -1.67925089
   84 C                    6.0000     2.42275277    -3.35005609    -2.48397139
   85 C                    6.0000     1.21609791    -3.26417984    -0.41506073
   86 C                    6.0000     3.07025964    -4.49514305    -2.03799872
   87 H                    1.0000     2.66483512    -2.96233477    -3.46291504
   88 C                    6.0000     1.86785386    -4.39952723     0.02023458
   89 H                    1.0000     0.46228317    -2.80191699     0.21383055
   90 C                    6.0000     2.80734034    -5.03371361    -0.78893855
   91 H                    1.0000     3.79737931    -4.97013570    -2.68618380
   92 H                    1.0000     1.62901951    -4.80526140     0.99744060
   93 H                    1.0000     3.31441563    -5.92878701    -0.45381917
   94 C                    6.0000     0.99488792    -1.13091949    -3.43466497
   95 H                    1.0000     2.03033440    -0.81395537    -3.62025472
   96 H                    1.0000     0.75541674    -1.92367834    -4.15382922
   97 H                    1.0000     0.35572609    -0.27530487    -3.64492969

      Atomic Mass 
      ----------- 

      C                 12.000000
      O                 15.994910
      Ni                57.935300
      N                 14.003070
      H                  1.007825


 Effective nuclear repulsion energy (a.u.)    7262.7499256873

            Nuclear Dipole moment (a.u.) 
            ----------------------------
        X                 Y               Z
 ---------------- ---------------- ----------------
     0.0000000000     0.0000000000     0.0000000000



                                Z-matrix (autoz)
                                -------- 

 Units are Angstrom for bonds and degrees for angles

      Type          Name      I     J     K     L     M      Value
      ----------- --------  ----- ----- ----- ----- ----- ----------
    1 Stretch                  1     2                       1.20776
    2 Stretch                  1     3                       1.83571
    3 Stretch                  1    77                       1.50361
    4 Stretch                  3     4                       1.89390
    5 Stretch                  3    71                       1.83875
    6 Stretch                  4     5                       1.34359
    7 Stretch                  4     6                       1.33363
    8 Stretch                  5     7                       1.46345
    9 Stretch                  5     8                       1.42950
   10 Stretch                  6     9                       1.46776
   11 Stretch                  6    10                       1.43069
   12 Stretch                  7     9                       1.53130
   13 Stretch                  7    11                       1.09109
   14 Stretch                  7    12                       1.09144
   15 Stretch                  8    13                       1.40006
   16 Stretch                  8    14                       1.40122
   17 Stretch                  9    15                       1.09195
   18 Stretch                  9    16                       1.08960
   19 Stretch                 10    17                       1.39830
   20 Stretch                 10    18                       1.39647
   21 Stretch                 13    19                       1.39157
   22 Stretch                 13    20                       1.51737
   23 Stretch                 14    21                       1.38928
   24 Stretch                 14    22                       1.51674
   25 Stretch                 17    23                       1.38999
   26 Stretch                 17    24                       1.51807
   27 Stretch                 18    25                       1.38907
   28 Stretch                 18    26                       1.51618
   29 Stretch                 19    27                       1.38314
   30 Stretch                 19    28                       1.08230
   31 Stretch                 20    29                       1.53213
   32 Stretch                 20    30                       1.52886
   33 Stretch                 20    31                       1.09231
   34 Stretch                 21    27                       1.38534
   35 Stretch                 21    32                       1.08310
   36 Stretch                 22    33                       1.53026
   37 Stretch                 22    34                       1.53152
   38 Stretch                 22    35                       1.09268
   39 Stretch                 23    36                       1.38453
   40 Stretch                 23    37                       1.08300
   41 Stretch                 24    38                       1.53304
   42 Stretch                 24    39                       1.52841
   43 Stretch                 24    40                       1.09307
   44 Stretch                 25    36                       1.38409
   45 Stretch                 25    41                       1.08244
   46 Stretch                 26    42                       1.52889
   47 Stretch                 26    43                       1.53208
   48 Stretch                 26    44                       1.09213
   49 Stretch                 27    45                       1.08241
   50 Stretch                 29    46                       1.09204
   51 Stretch                 29    47                       1.09218
   52 Stretch                 29    48                       1.09141
   53 Stretch                 30    49                       1.09129
   54 Stretch                 30    50                       1.09172
   55 Stretch                 30    51                       1.09181
   56 Stretch                 33    52                       1.09000
   57 Stretch                 33    53                       1.09172
   58 Stretch                 33    54                       1.09149
   59 Stretch                 34    55                       1.09132
   60 Stretch                 34    56                       1.09159
   61 Stretch                 34    57                       1.09209
   62 Stretch                 36    58                       1.08267
   63 Stretch                 38    59                       1.09161
   64 Stretch                 38    60                       1.09202
   65 Stretch                 38    61                       1.09180
   66 Stretch                 39    62                       1.08867
   67 Stretch                 39    63                       1.09205
   68 Stretch                 39    64                       1.09177
   69 Stretch                 42    65                       1.08898
   70 Stretch                 42    66                       1.09218
   71 Stretch                 42    67                       1.09196
   72 Stretch                 43    68                       1.09182
   73 Stretch                 43    69                       1.09188
   74 Stretch                 43    70                       1.09233
   75 Stretch                 71    83                       1.38087
   76 Stretch                 71    94                       1.45071
   77 Stretch                 72    73                       1.39104
   78 Stretch                 72    75                       1.38818
   79 Stretch                 72    81                       1.08285
   80 Stretch                 73    76                       1.38510
   81 Stretch                 73    82                       1.08280
   82 Stretch                 74    75                       1.08291
   83 Stretch                 75    78                       1.38720
   84 Stretch                 76    77                       1.39222
   85 Stretch                 76    79                       1.08266
   86 Stretch                 77    78                       1.38753
   87 Stretch                 78    80                       1.08327
   88 Stretch                 83    84                       1.40534
   89 Stretch                 83    85                       1.40883
   90 Stretch                 84    86                       1.38902
   91 Stretch                 84    87                       1.08040
   92 Stretch                 85    88                       1.37959
   93 Stretch                 85    89                       1.08509
   94 Stretch                 86    90                       1.38540
   95 Stretch                 86    91                       1.08373
   96 Stretch                 88    90                       1.39269
   97 Stretch                 88    92                       1.08471
   98 Stretch                 90    93                       1.08194
   99 Stretch                 94    95                       1.09866
  100 Stretch                 94    96                       1.09682
  101 Stretch                 94    97                       1.08849
  102 Bend                     1     3     4               102.34149
  103 Bend                     1     3    71                93.38513
  104 Bend                     1    77    76               119.35852
  105 Bend                     1    77    78               120.72039
  106 Bend                     2     1     3               120.02743
  107 Bend                     2     1    77               120.44341
  108 Bend                     3     1    77               119.29874
  109 Bend                     3     4     5               116.50689
  110 Bend                     3     4     6               135.43817
  111 Bend                     3    71    83               121.98917
  112 Bend                     3    71    94               118.78927
  113 Bend                     4     3    71               163.49573
  114 Bend                     4     5     7               114.16644
  115 Bend                     4     5     8               123.43079
  116 Bend                     4     6     9               113.58719
  117 Bend                     4     6    10               126.00644
  118 Bend                     5     4     6               107.40422
  119 Bend                     5     7     9               101.84853
  120 Bend                     5     7    11               110.40667
  121 Bend                     5     7    12               110.73978
  122 Bend                     5     8    13               119.02803
  123 Bend                     5     8    14               118.81258
  124 Bend                     6     9     7               102.69524
  125 Bend                     6     9    15               109.87353
  126 Bend                     6     9    16               110.46866
  127 Bend                     6    10    17               118.21590
  128 Bend                     6    10    18               119.27214
  129 Bend                     7     5     8               122.37983
  130 Bend                     7     9    15               112.65060
  131 Bend                     7     9    16               112.86612
  132 Bend                     8    13    19               117.77647
  133 Bend                     8    13    20               122.12034
  134 Bend                     8    14    21               117.95039
  135 Bend                     8    14    22               121.97677
  136 Bend                     9     6    10               120.37465
  137 Bend                     9     7    11               112.85575
  138 Bend                     9     7    12               112.64307
  139 Bend                    10    17    23               117.76808
  140 Bend                    10    17    24               122.06098
  141 Bend                    10    18    25               117.70689
  142 Bend                    10    18    26               121.98927
  143 Bend                    11     7    12               108.26464
  144 Bend                    13     8    14               122.15843
  145 Bend                    13    19    27               120.98190
  146 Bend                    13    19    28               119.50415
  147 Bend                    13    20    29               109.75952
  148 Bend                    13    20    30               112.58239
  149 Bend                    13    20    31               107.99956
  150 Bend                    14    21    27               120.83478
  151 Bend                    14    21    32               119.59425
  152 Bend                    14    22    33               111.79727
  153 Bend                    14    22    34               110.93240
  154 Bend                    14    22    35               107.87232
  155 Bend                    15     9    16               108.20426
  156 Bend                    17    10    18               122.50206
  157 Bend                    17    23    36               120.76694
  158 Bend                    17    23    37               119.59887
  159 Bend                    17    24    38               110.05972
  160 Bend                    17    24    39               112.96304
  161 Bend                    17    24    40               107.94323
  162 Bend                    18    25    36               120.92774
  163 Bend                    18    25    41               119.54753
  164 Bend                    18    26    42               112.36492
  165 Bend                    18    26    43               110.44900
  166 Bend                    18    26    44               107.80949
  167 Bend                    19    13    20               120.05767
  168 Bend                    19    27    21               120.27520
  169 Bend                    19    27    45               119.84608
  170 Bend                    20    29    46               111.68059
  171 Bend                    20    29    47               110.44528
  172 Bend                    20    29    48               110.58781
  173 Bend                    20    30    49               111.00628
  174 Bend                    20    30    50               109.84654
  175 Bend                    20    30    51               111.42380
  176 Bend                    21    14    22               120.06985
  177 Bend                    21    27    45               119.87224
  178 Bend                    22    33    52               111.47667
  179 Bend                    22    33    53               111.25233
  180 Bend                    22    33    54               110.17926
  181 Bend                    22    34    55               111.95753
  182 Bend                    22    34    56               110.63760
  183 Bend                    22    34    57               110.38282
  184 Bend                    23    17    24               120.11597
  185 Bend                    23    36    25               120.31399
  186 Bend                    23    36    58               119.84246
  187 Bend                    24    38    59               112.03005
  188 Bend                    24    38    60               110.31069
  189 Bend                    24    38    61               110.67919
  190 Bend                    24    39    62               111.58258
  191 Bend                    24    39    63               109.91142
  192 Bend                    24    39    64               111.27300
  193 Bend                    25    18    26               120.30111
  194 Bend                    25    36    58               119.84352
  195 Bend                    26    42    65               110.58348
  196 Bend                    26    42    66               111.31955
  197 Bend                    26    42    67               109.94674
  198 Bend                    26    43    68               111.97128
  199 Bend                    26    43    69               110.60569
  200 Bend                    26    43    70               110.34922
  201 Bend                    27    19    28               119.51390
  202 Bend                    27    21    32               119.55019
  203 Bend                    29    20    30               111.00796
  204 Bend                    29    20    31               107.89926
  205 Bend                    30    20    31               107.41009
  206 Bend                    33    22    34               110.28121
  207 Bend                    33    22    35               107.26466
  208 Bend                    34    22    35               108.53907
  209 Bend                    36    23    37               119.63416
  210 Bend                    36    25    41               119.51382
  211 Bend                    38    24    39               110.18027
  212 Bend                    38    24    40               108.33237
  213 Bend                    39    24    40               107.19513
  214 Bend                    42    26    43               110.60933
  215 Bend                    42    26    44               107.19887
  216 Bend                    43    26    44               108.22946
  217 Bend                    46    29    47               107.56888
  218 Bend                    46    29    48               108.37675
  219 Bend                    47    29    48               108.05193
  220 Bend                    49    30    50               108.71768
  221 Bend                    49    30    51               108.33532
  222 Bend                    50    30    51               107.39980
  223 Bend                    52    33    53               107.88894
  224 Bend                    52    33    54               108.32610
  225 Bend                    53    33    54               107.57719
  226 Bend                    55    34    56               108.39156
  227 Bend                    55    34    57               107.37451
  228 Bend                    56    34    57               107.94975
  229 Bend                    59    38    60               107.25851
  230 Bend                    59    38    61               108.46506
  231 Bend                    60    38    61               107.94545
  232 Bend                    62    39    63               108.36659
  233 Bend                    62    39    64               108.11292
  234 Bend                    63    39    64               107.45458
  235 Bend                    65    42    66               108.36230
  236 Bend                    65    42    67               109.24589
  237 Bend                    66    42    67               107.29666
  238 Bend                    68    43    69               108.33558
  239 Bend                    68    43    70               107.44165
  240 Bend                    69    43    70               107.99401
  241 Bend                    71    83    84               123.90321
  242 Bend                    71    83    85               119.30029
  243 Bend                    71    94    95               113.04829
  244 Bend                    71    94    96               111.20197
  245 Bend                    71    94    97               109.37645
  246 Bend                    72    73    76               119.99442
  247 Bend                    72    73    82               119.91501
  248 Bend                    72    75    74               120.21473
  249 Bend                    72    75    78               119.71557
  250 Bend                    73    72    75               120.17901
  251 Bend                    73    72    81               119.88409
  252 Bend                    73    76    77               119.91352
  253 Bend                    73    76    79               121.62158
  254 Bend                    74    75    78               120.06741
  255 Bend                    75    72    81               119.93489
  256 Bend                    75    78    77               120.27253
  257 Bend                    75    78    80               120.77871
  258 Bend                    76    73    82               120.09022
  259 Bend                    76    77    78               119.92109
  260 Bend                    77    76    79               118.46478
  261 Bend                    77    78    80               118.93867
  262 Bend                    83    71    94               115.96491
  263 Bend                    83    84    86               120.91440
  264 Bend                    83    84    87               120.24829
  265 Bend                    83    85    88               121.85551
  266 Bend                    83    85    89               118.39146
  267 Bend                    84    83    85               116.77741
  268 Bend                    84    86    90               121.43171
  269 Bend                    84    86    91               118.81982
  270 Bend                    85    88    90               120.67147
  271 Bend                    85    88    92               119.21311
  272 Bend                    86    84    87               118.83661
  273 Bend                    86    90    88               118.34852
  274 Bend                    86    90    93               120.79178
  275 Bend                    88    85    89               119.73008
  276 Bend                    88    90    93               120.85828
  277 Bend                    90    86    91               119.74828
  278 Bend                    90    88    92               120.10811
  279 Bend                    95    94    96               107.66987
  280 Bend                    95    94    97               107.09785
  281 Bend                    96    94    97               108.25712
  282 Torsion                  1     3     4     5        -161.15134
  283 Torsion                  1     3     4     6          29.49939
  284 Torsion                  1     3    71    83         102.56092
  285 Torsion                  1     3    71    94         -56.22569
  286 Torsion                  1    77    76    73         179.40533
  287 Torsion                  1    77    76    79          -0.47187
  288 Torsion                  1    77    78    75        -179.40939
  289 Torsion                  1    77    78    80           1.73742
  290 Torsion                  2     1     3     4         -90.08029
  291 Torsion                  2     1     3    71          84.88178
  292 Torsion                  2     1    77    76           7.18989
  293 Torsion                  2     1    77    78        -172.79801
  294 Torsion                  3     1    77    76        -178.32315
  295 Torsion                  3     1    77    78           1.68894
  296 Torsion                  3     4     5     7        -172.11406
  297 Torsion                  3     4     5     8           9.59340
  298 Torsion                  3     4     6     9         166.29728
  299 Torsion                  3     4     6    10         -11.64611
  300 Torsion                  3    71    83    84        -155.02185
  301 Torsion                  3    71    83    85          26.62092
  302 Torsion                  3    71    94    95          96.36559
  303 Torsion                  3    71    94    96        -142.37872
  304 Torsion                  3    71    94    97         -22.86517
  305 Torsion                  4     3     1    77          95.40940
  306 Torsion                  4     3    71    83         -95.01508
  307 Torsion                  4     3    71    94         106.19832
  308 Torsion                  4     5     7     9           3.22783
  309 Torsion                  4     5     7    11         123.32663
  310 Torsion                  4     5     7    12        -116.77675
  311 Torsion                  4     5     8    13         -82.64977
  312 Torsion                  4     5     8    14          97.69890
  313 Torsion                  4     6     9     7           5.55070
  314 Torsion                  4     6     9    15        -114.52804
  315 Torsion                  4     6     9    16         126.16429
  316 Torsion                  4     6    10    17         -98.20535
  317 Torsion                  4     6    10    18          82.91053
  318 Torsion                  5     4     3    71          36.82200
  319 Torsion                  5     4     6     9          -3.72131
  320 Torsion                  5     4     6    10         178.33530
  321 Torsion                  5     7     9     6          -4.82782
  322 Torsion                  5     7     9    15         113.30991
  323 Torsion                  5     7     9    16        -123.77688
  324 Torsion                  5     8    13    19         179.47764
  325 Torsion                  5     8    13    20          -2.97679
  326 Torsion                  5     8    14    21         179.15475
  327 Torsion                  5     8    14    22          -1.47398
  328 Torsion                  6     4     3    71        -132.52727
  329 Torsion                  6     4     5     7           0.07485
  330 Torsion                  6     4     5     8        -178.21769
  331 Torsion                  6     9     7    11        -123.19093
  332 Torsion                  6     9     7    12         113.82930
  333 Torsion                  6    10    17    23         179.79492
  334 Torsion                  6    10    17    24          -2.90069
  335 Torsion                  6    10    18    25         179.74694
  336 Torsion                  6    10    18    26           0.34594
  337 Torsion                  7     5     8    13          99.19491
  338 Torsion                  7     5     8    14         -80.45642
  339 Torsion                  7     9     6    10        -176.37764
  340 Torsion                  8     5     7     9        -178.45948
  341 Torsion                  8     5     7    11         -58.36067
  342 Torsion                  8     5     7    12          61.53595
  343 Torsion                  8    13    19    27           1.39932
  344 Torsion                  8    13    19    28        -178.51521
  345 Torsion                  8    13    20    29        -103.70655
  346 Torsion                  8    13    20    30         132.10204
  347 Torsion                  8    13    20    31          13.68664
  348 Torsion                  8    14    21    27           1.38124
  349 Torsion                  8    14    21    32         179.71535
  350 Torsion                  8    14    22    33        -128.28414
  351 Torsion                  8    14    22    34         108.16545
  352 Torsion                  8    14    22    35         -10.58672
  353 Torsion                  9     6    10    17          83.97937
  354 Torsion                  9     6    10    18         -94.90476
  355 Torsion                 10     6     9    15          63.54362
  356 Torsion                 10     6     9    16         -55.76406
  357 Torsion                 10    17    23    36           0.71907
  358 Torsion                 10    17    23    37        -179.33772
  359 Torsion                 10    17    24    38        -106.74062
  360 Torsion                 10    17    24    39         129.64636
  361 Torsion                 10    17    24    40          11.30700
  362 Torsion                 10    18    25    36           0.18538
  363 Torsion                 10    18    25    41         178.97749
  364 Torsion                 10    18    26    42        -133.05136
  365 Torsion                 10    18    26    43         102.91753
  366 Torsion                 10    18    26    44         -15.14599
  367 Torsion                 11     7     9    15          -5.05321
  368 Torsion                 11     7     9    16         117.86001
  369 Torsion                 12     7     9    15        -128.03298
  370 Torsion                 12     7     9    16          -5.11976
  371 Torsion                 13     8    14    21          -0.48512
  372 Torsion                 13     8    14    22         178.88614
  373 Torsion                 13    19    27    21          -0.54503
  374 Torsion                 13    19    27    45        -179.61794
  375 Torsion                 13    20    29    46          56.49282
  376 Torsion                 13    20    29    47         -63.16881
  377 Torsion                 13    20    29    48         177.27294
  378 Torsion                 13    20    30    49         -53.74734
  379 Torsion                 13    20    30    50        -174.01592
  380 Torsion                 13    20    30    51          67.09330
  381 Torsion                 14     8    13    19          -0.88324
  382 Torsion                 14     8    13    20         176.66233
  383 Torsion                 14    21    27    19          -0.89498
  384 Torsion                 14    21    27    45         178.17769
  385 Torsion                 14    22    33    52          51.24086
  386 Torsion                 14    22    33    53         -69.23650
  387 Torsion                 14    22    33    54         171.54421
  388 Torsion                 14    22    34    55         -56.13131
  389 Torsion                 14    22    34    56        -177.15247
  390 Torsion                 14    22    34    57          63.42481
  391 Torsion                 17    10    18    25           0.91284
  392 Torsion                 17    10    18    26        -178.48816
  393 Torsion                 17    23    36    25           0.32659
  394 Torsion                 17    23    36    58        -179.61262
  395 Torsion                 17    24    38    59          54.41001
  396 Torsion                 17    24    38    60         -64.99865
  397 Torsion                 17    24    38    61         175.60374
  398 Torsion                 17    24    39    62         -57.30453
  399 Torsion                 17    24    39    63        -177.54854
  400 Torsion                 17    24    39    64          63.54543
  401 Torsion                 18    10    17    23          -1.35924
  402 Torsion                 18    10    17    24         175.94515
  403 Torsion                 18    25    36    23          -0.79634
  404 Torsion                 18    25    36    58         179.14286
  405 Torsion                 18    26    42    65          50.82551
  406 Torsion                 18    26    42    66         -69.69146
  407 Torsion                 18    26    42    67         171.54689
  408 Torsion                 18    26    43    68         -56.79188
  409 Torsion                 18    26    43    69        -177.72879
  410 Torsion                 18    26    43    70          62.83533
  411 Torsion                 19    13    20    29          73.78440
  412 Torsion                 19    13    20    30         -50.40701
  413 Torsion                 19    13    20    31        -168.82241
  414 Torsion                 19    27    21    32        -179.22981
  415 Torsion                 20    13    19    27        -176.19900
  416 Torsion                 20    13    19    28           3.88647
  417 Torsion                 21    14    22    33          51.07409
  418 Torsion                 21    14    22    34         -72.47631
  419 Torsion                 21    14    22    35         168.77151
  420 Torsion                 21    27    19    28         179.36949
  421 Torsion                 22    14    21    27        -178.00249
  422 Torsion                 22    14    21    32           0.33162
  423 Torsion                 23    17    24    38          70.50193
  424 Torsion                 23    17    24    39         -53.11109
  425 Torsion                 23    17    24    40        -171.45045
  426 Torsion                 23    36    25    41        -179.58885
  427 Torsion                 24    17    23    36        -176.63998
  428 Torsion                 24    17    23    37           3.30323
  429 Torsion                 25    18    26    42          47.56287
  430 Torsion                 25    18    26    43         -76.46824
  431 Torsion                 25    18    26    44         165.46824
  432 Torsion                 25    36    23    37        -179.61661
  433 Torsion                 26    18    25    36         179.59695
  434 Torsion                 26    18    25    41          -1.61094
  435 Torsion                 28    19    27    45           0.29657
  436 Torsion                 29    20    30    49        -177.24697
  437 Torsion                 29    20    30    50          62.48445
  438 Torsion                 29    20    30    51         -56.40633
  439 Torsion                 30    20    29    46        -178.40471
  440 Torsion                 30    20    29    47          61.93366
  441 Torsion                 30    20    29    48         -57.62459
  442 Torsion                 31    20    29    46         -60.96299
  443 Torsion                 31    20    29    47         179.37538
  444 Torsion                 31    20    29    48          59.81713
  445 Torsion                 31    20    30    49          65.01338
  446 Torsion                 31    20    30    50         -55.25520
  447 Torsion                 31    20    30    51        -174.14598
  448 Torsion                 32    21    27    45          -0.15714
  449 Torsion                 33    22    34    55         179.45313
  450 Torsion                 33    22    34    56          58.43198
  451 Torsion                 33    22    34    57         -60.99074
  452 Torsion                 34    22    33    52         175.15794
  453 Torsion                 34    22    33    53          54.68058
  454 Torsion                 34    22    33    54         -64.53871
  455 Torsion                 35    22    33    52         -66.82024
  456 Torsion                 35    22    33    53         172.70239
  457 Torsion                 35    22    33    54          53.48310
  458 Torsion                 35    22    34    55          62.21783
  459 Torsion                 35    22    34    56         -58.80332
  460 Torsion                 35    22    34    57        -178.22604
  461 Torsion                 37    23    36    58           0.44419
  462 Torsion                 38    24    39    62         179.14897
  463 Torsion                 38    24    39    63          58.90496
  464 Torsion                 38    24    39    64         -60.00108
  465 Torsion                 39    24    38    59         179.62906
  466 Torsion                 39    24    38    60          60.22040
  467 Torsion                 39    24    38    61         -59.17721
  468 Torsion                 40    24    38    59         -63.39713
  469 Torsion                 40    24    38    60         177.19421
  470 Torsion                 40    24    38    61          57.79660
  471 Torsion                 40    24    39    62          61.47006
  472 Torsion                 40    24    39    63         -58.77395
  473 Torsion                 40    24    39    64        -177.67999
  474 Torsion                 41    25    36    58           0.35035
  475 Torsion                 42    26    43    68         178.17267
  476 Torsion                 42    26    43    69          57.23576
  477 Torsion                 42    26    43    70         -62.20012
  478 Torsion                 43    26    42    65         174.76756
  479 Torsion                 43    26    42    66          54.25059
  480 Torsion                 43    26    42    67         -64.51106
  481 Torsion                 44    26    42    65         -67.44074
  482 Torsion                 44    26    42    66         172.04229
  483 Torsion                 44    26    42    67          53.28064
  484 Torsion                 44    26    43    68          61.01401
  485 Torsion                 44    26    43    69         -59.92291
  486 Torsion                 44    26    43    70        -179.35879
  487 Torsion                 71     3     1    77         -89.62852
  488 Torsion                 71    83    84    86        -178.53649
  489 Torsion                 71    83    84    87           1.77175
  490 Torsion                 71    83    85    88         178.82630
  491 Torsion                 71    83    85    89           0.57451
  492 Torsion                 72    73    76    77           0.11775
  493 Torsion                 72    73    76    79         179.99098
  494 Torsion                 72    75    78    77          -0.10788
  495 Torsion                 72    75    78    80         178.72396
  496 Torsion                 73    72    75    74         179.06630
  497 Torsion                 73    72    75    78          -0.38333
  498 Torsion                 73    76    77    78          -0.60666
  499 Torsion                 74    75    72    81          -0.41632
  500 Torsion                 74    75    78    77        -179.55833
  501 Torsion                 74    75    78    80          -0.72649
  502 Torsion                 75    72    73    76           0.37833
  503 Torsion                 75    72    73    82        -179.40735
  504 Torsion                 75    78    77    76           0.60277
  505 Torsion                 76    73    72    81         179.86122
  506 Torsion                 76    77    78    80        -178.25042
  507 Torsion                 77    76    73    82         179.90305
  508 Torsion                 78    75    72    81        -179.86595
  509 Torsion                 78    77    76    79         179.51613
  510 Torsion                 79    76    73    82          -0.22372
  511 Torsion                 81    72    73    82           0.07554
  512 Torsion                 83    71    94    95         -63.67519
  513 Torsion                 83    71    94    96          57.58050
  514 Torsion                 83    71    94    97         177.09405
  515 Torsion                 83    84    86    90          -0.10275
  516 Torsion                 83    84    86    91        -179.94482
  517 Torsion                 83    85    88    90          -0.32402
  518 Torsion                 83    85    88    92        -179.34127
  519 Torsion                 84    83    71    94           4.32435
  520 Torsion                 84    83    85    88           0.35351
  521 Torsion                 84    83    85    89        -177.89827
  522 Torsion                 84    86    90    88           0.14254
  523 Torsion                 84    86    90    93         179.71321
  524 Torsion                 85    83    71    94        -174.03288
  525 Torsion                 85    83    84    86          -0.14116
  526 Torsion                 85    83    84    87        -179.83292
  527 Torsion                 85    88    90    86           0.06782
  528 Torsion                 85    88    90    93        -179.50255
  529 Torsion                 86    90    88    92         179.07628
  530 Torsion                 87    84    86    90         179.59328
  531 Torsion                 87    84    86    91          -0.24878
  532 Torsion                 88    90    86    91         179.98317
  533 Torsion                 89    85    88    90         177.90490
  534 Torsion                 89    85    88    92          -1.11234
  535 Torsion                 91    86    90    93          -0.44616
  536 Torsion                 92    88    90    93          -0.49409


            XYZ format geometry
            -------------------
    97
 geometry
 C                     1.42256756     0.84264145    -1.13109516
 O                     1.33931120     1.63387577    -2.03977498
 Ni                    0.08324521    -0.38169610    -0.85350783
 C                    -1.07140675     0.54265071     0.32938490
 N                    -1.94005125    -0.20759365     1.02783189
 N                    -1.38237587     1.82090775     0.54832620
 C                    -2.92531812     0.56528435     1.78518495
 C                    -1.89324253    -1.63579357     1.06693677
 C                    -2.58085127     2.00026308     1.37646671
 C                    -0.68933662     2.95698271     0.02305564
 H                    -3.93758809     0.27477973     1.49988394
 H                    -2.80963688     0.39437959     2.85694120
 C                    -2.47964471    -2.36353626     0.02449187
 C                    -1.26719913    -2.26146089     2.15322991
 H                    -3.37126976     2.47127451     0.78847559
 H                    -2.36220740     2.64245146     2.22912237
 C                     0.24534995     3.59800438     0.84201918
 C                    -0.98297250     3.39872363    -1.26875645
 C                    -2.40925832    -3.75208592     0.08328096
 C                    -3.22178364    -1.68767181    -1.11341739
 C                    -1.24771898    -3.65030833     2.18202178
 C                    -0.61152821    -1.46894923     3.26790919
 C                     0.91639817     4.69805465     0.32080951
 C                     0.49168860     3.16466895     2.27592463
 C                    -0.29475758     4.50772580    -1.74413348
 C                    -2.02302881     2.71489185    -2.13447392
 C                    -1.80552003    -4.38978342     1.15188150
 H                    -2.83204148    -4.34170024    -0.71983042
 C                    -4.73248017    -1.84500129    -0.91229204
 C                    -2.79418533    -2.20976469    -2.48527147
 H                    -2.98824567    -0.62107715    -1.08231241
 H                    -0.76683044    -4.16152154     3.00694887
 C                     0.82423550    -1.93150673     3.52541296
 C                    -1.43529650    -1.55240709     4.55631514
 H                    -0.56394757    -0.42369055     2.95306287
 C                     0.65133185     5.14695774    -0.96182532
 H                     1.65443660     5.21030501     0.92560901
 C                    -0.11460931     4.18582953     3.24538309
 C                     1.97283255     2.95492877     2.58937573
 H                    -0.00992114     2.20559665     2.42877372
 H                    -0.48691155     4.86547573    -2.74751592
 C                    -1.51956254     2.45765197    -3.55498676
 C                    -3.31852799     3.53234258    -2.16123721
 H                    -2.24187596     1.74235675    -1.68835504
 H                    -1.75556314    -5.47077721     1.17580800
 H                    -5.05422716    -1.44968924     0.05350660
 H                    -5.01422510    -2.89963865    -0.94724962
 H                    -5.28075255    -1.32224402    -1.69797304
 H                    -1.71209159    -2.14242499    -2.60958336
 H                    -3.27427066    -1.62341066    -3.27112264
 H                    -3.09200283    -3.25065020    -2.62640528
 H                     1.40542552    -1.96083007     2.60375300
 H                     0.84521329    -2.92971324     3.96699757
 H                     1.31937633    -1.25248467     4.22191562
 H                    -2.46346344    -1.21904596     4.40559305
 H                    -0.98615892    -0.94009120     5.34047752
 H                    -1.47593962    -2.58286707     4.91571913
 H                     1.18736257     6.00146643    -1.35508906
 H                    -1.17262635     4.36362445     3.04390823
 H                     0.39825094     5.14563698     3.15453927
 H                    -0.01156682     3.84574663     4.27773353
 H                     2.42330664     2.22156707     1.92270244
 H                     2.08942951     2.60344051     3.61672140
 H                     2.53322789     3.88729962     2.49666829
 H                    -0.55253528     1.95736915    -3.53371590
 H                    -1.41227145     3.39023682    -4.11321807
 H                    -2.23487912     1.83542059    -4.09677471
 H                    -3.71537891     3.70185532    -1.15831789
 H                    -4.08262663     3.02227987    -2.75130975
 H                    -3.14090060     4.51097739    -2.61278890
 N                     0.77235843    -1.57445809    -2.07146721
 C                     4.97862915     0.66641643     1.24111991
 C                     4.82418770     1.66621985     0.28637812
 H                     4.11182581    -1.07437182     2.15274548
 C                     3.98558583    -0.28692472     1.42016514
 C                     3.67372100     1.71693540    -0.48327322
 C                     2.67210800     0.76785166    -0.29809077
 C                     2.83425663    -0.23390094     0.64818904
 H                     3.52599040     2.48340813    -1.23350288
 H                     2.05754995    -0.98081786     0.75916249
 H                     5.87975340     0.62711849     1.84027648
 H                     5.60569008     2.40198162     0.14366614
 C                     1.47294956    -2.69791378    -1.67925089
 C                     2.42275277    -3.35005609    -2.48397139
 C                     1.21609791    -3.26417984    -0.41506073
 C                     3.07025964    -4.49514305    -2.03799872
 H                     2.66483512    -2.96233477    -3.46291504
 C                     1.86785386    -4.39952723     0.02023458
 H                     0.46228317    -2.80191699     0.21383055
 C                     2.80734034    -5.03371361    -0.78893855
 H                     3.79737931    -4.97013570    -2.68618380
 H                     1.62901951    -4.80526140     0.99744060
 H                     3.31441563    -5.92878701    -0.45381917
 C                     0.99488792    -1.13091949    -3.43466497
 H                     2.03033440    -0.81395537    -3.62025472
 H                     0.75541674    -1.92367834    -4.15382922
 H                     0.35572609    -0.27530487    -3.64492969

 ==============================================================================
                                internuclear distances
 ------------------------------------------------------------------------------
       center one      |      center two      | atomic units |  angstroms
 ------------------------------------------------------------------------------
    2 O                |   1 C                |     2.28233  |     1.20776
    3 Ni               |   1 C                |     3.46899  |     1.83571
    4 C                |   3 Ni               |     3.57896  |     1.89390
    5 N                |   4 C                |     2.53902  |     1.34359
    6 N                |   4 C                |     2.52020  |     1.33363
    7 C                |   5 N                |     2.76551  |     1.46345
    8 C                |   5 N                |     2.70137  |     1.42950
    9 C                |   6 N                |     2.77367  |     1.46776
    9 C                |   7 C                |     2.89373  |     1.53130
   10 C                |   6 N                |     2.70362  |     1.43069
   11 H                |   7 C                |     2.06186  |     1.09109
   12 H                |   7 C                |     2.06253  |     1.09144
   13 C                |   8 C                |     2.64573  |     1.40006
   14 C                |   8 C                |     2.64793  |     1.40122
   15 H                |   9 C                |     2.06348  |     1.09195
   16 H                |   9 C                |     2.05905  |     1.08960
   17 C                |  10 C                |     2.64241  |     1.39830
   18 C                |  10 C                |     2.63895  |     1.39647
   19 C                |  13 C                |     2.62970  |     1.39157
   20 C                |  13 C                |     2.86741  |     1.51737
   21 C                |  14 C                |     2.62536  |     1.38928
   22 C                |  14 C                |     2.86622  |     1.51674
   23 C                |  17 C                |     2.62670  |     1.38999
   24 C                |  17 C                |     2.86874  |     1.51807
   25 C                |  18 C                |     2.62496  |     1.38907
   26 C                |  18 C                |     2.86517  |     1.51618
   27 C                |  19 C                |     2.61375  |     1.38314
   27 C                |  21 C                |     2.61790  |     1.38534
   28 H                |  19 C                |     2.04526  |     1.08230
   29 C                |  20 C                |     2.89530  |     1.53213
   30 C                |  20 C                |     2.88912  |     1.52886
   31 H                |  20 C                |     2.06416  |     1.09231
   32 H                |  21 C                |     2.04676  |     1.08310
   33 C                |  22 C                |     2.89177  |     1.53026
   34 C                |  22 C                |     2.89415  |     1.53152
   35 H                |  22 C                |     2.06487  |     1.09268
   36 C                |  23 C                |     2.61638  |     1.38453
   36 C                |  25 C                |     2.61555  |     1.38409
   37 H                |  23 C                |     2.04657  |     1.08300
   38 C                |  24 C                |     2.89703  |     1.53304
   39 C                |  24 C                |     2.88827  |     1.52841
   40 H                |  24 C                |     2.06560  |     1.09307
   41 H                |  25 C                |     2.04552  |     1.08244
   42 C                |  26 C                |     2.88918  |     1.52889
   43 C                |  26 C                |     2.89521  |     1.53208
   44 H                |  26 C                |     2.06382  |     1.09213
   45 H                |  27 C                |     2.04546  |     1.08241
   46 H                |  29 C                |     2.06366  |     1.09204
   47 H                |  29 C                |     2.06393  |     1.09218
   48 H                |  29 C                |     2.06246  |     1.09141
   49 H                |  30 C                |     2.06224  |     1.09129
   50 H                |  30 C                |     2.06305  |     1.09172
   51 H                |  30 C                |     2.06323  |     1.09181
   52 H                |  33 C                |     2.05980  |     1.09000
   53 H                |  33 C                |     2.06305  |     1.09172
   54 H                |  33 C                |     2.06262  |     1.09149
   55 H                |  34 C                |     2.06229  |     1.09132
   56 H                |  34 C                |     2.06280  |     1.09159
   57 H                |  34 C                |     2.06376  |     1.09209
   58 H                |  36 C                |     2.04595  |     1.08267
   59 H                |  38 C                |     2.06284  |     1.09161
   60 H                |  38 C                |     2.06362  |     1.09202
   61 H                |  38 C                |     2.06320  |     1.09180
   62 H                |  39 C                |     2.05729  |     1.08867
   63 H                |  39 C                |     2.06368  |     1.09205
   64 H                |  39 C                |     2.06314  |     1.09177
   65 H                |  42 C                |     2.05787  |     1.08898
   66 H                |  42 C                |     2.06391  |     1.09218
   67 H                |  42 C                |     2.06351  |     1.09196
   68 H                |  43 C                |     2.06324  |     1.09182
   69 H                |  43 C                |     2.06335  |     1.09188
   70 H                |  43 C                |     2.06420  |     1.09233
   71 N                |   3 Ni               |     3.47472  |     1.83875
   73 C                |  72 C                |     2.62868  |     1.39104
   75 C                |  72 C                |     2.62329  |     1.38818
   75 C                |  74 H                |     2.04639  |     1.08291
   76 C                |  73 C                |     2.61746  |     1.38510
   77 C                |   1 C                |     2.84141  |     1.50361
   77 C                |  76 C                |     2.63092  |     1.39222
   78 C                |  75 C                |     2.62142  |     1.38720
   78 C                |  77 C                |     2.62206  |     1.38753
   79 H                |  76 C                |     2.04593  |     1.08266
   80 H                |  78 C                |     2.04708  |     1.08327
   81 H                |  72 C                |     2.04628  |     1.08285
   82 H                |  73 C                |     2.04620  |     1.08280
   83 C                |  71 N                |     2.60947  |     1.38087
   84 C                |  83 C                |     2.65571  |     1.40534
   85 C                |  83 C                |     2.66231  |     1.40883
   86 C                |  84 C                |     2.62487  |     1.38902
   87 H                |  84 C                |     2.04166  |     1.08040
   88 C                |  85 C                |     2.60706  |     1.37959
   89 H                |  85 C                |     2.05053  |     1.08509
   90 C                |  86 C                |     2.61803  |     1.38540
   90 C                |  88 C                |     2.63180  |     1.39269
   91 H                |  86 C                |     2.04795  |     1.08373
   92 H                |  88 C                |     2.04980  |     1.08471
   93 H                |  90 C                |     2.04456  |     1.08194
   94 C                |  71 N                |     2.74144  |     1.45071
   95 H                |  94 C                |     2.07617  |     1.09866
   96 H                |  94 C                |     2.07269  |     1.09682
   97 H                |  94 C                |     2.05695  |     1.08849
 ------------------------------------------------------------------------------
                         number of included internuclear distances:        101
 ==============================================================================



 ==============================================================================
                                 internuclear angles
 ------------------------------------------------------------------------------
        center 1       |       center 2       |       center 3       |  degrees
 ------------------------------------------------------------------------------
    2 O                |   1 C                |   3 Ni               |   120.03
    2 O                |   1 C                |  77 C                |   120.44
    3 Ni               |   1 C                |  77 C                |   119.30
    1 C                |   3 Ni               |   4 C                |   102.34
    1 C                |   3 Ni               |  71 N                |    93.39
    4 C                |   3 Ni               |  71 N                |   163.50
    3 Ni               |   4 C                |   5 N                |   116.51
    3 Ni               |   4 C                |   6 N                |   135.44
    5 N                |   4 C                |   6 N                |   107.40
    4 C                |   5 N                |   7 C                |   114.17
    4 C                |   5 N                |   8 C                |   123.43
    7 C                |   5 N                |   8 C                |   122.38
    4 C                |   6 N                |   9 C                |   113.59
    4 C                |   6 N                |  10 C                |   126.01
    9 C                |   6 N                |  10 C                |   120.37
    5 N                |   7 C                |   9 C                |   101.85
    5 N                |   7 C                |  11 H                |   110.41
    5 N                |   7 C                |  12 H                |   110.74
    9 C                |   7 C                |  11 H                |   112.86
    9 C                |   7 C                |  12 H                |   112.64
   11 H                |   7 C                |  12 H                |   108.26
    5 N                |   8 C                |  13 C                |   119.03
    5 N                |   8 C                |  14 C                |   118.81
   13 C                |   8 C                |  14 C                |   122.16
    6 N                |   9 C                |   7 C                |   102.70
    6 N                |   9 C                |  15 H                |   109.87
    6 N                |   9 C                |  16 H                |   110.47
    7 C                |   9 C                |  15 H                |   112.65
    7 C                |   9 C                |  16 H                |   112.87
   15 H                |   9 C                |  16 H                |   108.20
    6 N                |  10 C                |  17 C                |   118.22
    6 N                |  10 C                |  18 C                |   119.27
   17 C                |  10 C                |  18 C                |   122.50
    8 C                |  13 C                |  19 C                |   117.78
    8 C                |  13 C                |  20 C                |   122.12
   19 C                |  13 C                |  20 C                |   120.06
    8 C                |  14 C                |  21 C                |   117.95
    8 C                |  14 C                |  22 C                |   121.98
   21 C                |  14 C                |  22 C                |   120.07
   10 C                |  17 C                |  23 C                |   117.77
   10 C                |  17 C                |  24 C                |   122.06
   23 C                |  17 C                |  24 C                |   120.12
   10 C                |  18 C                |  25 C                |   117.71
   10 C                |  18 C                |  26 C                |   121.99
   25 C                |  18 C                |  26 C                |   120.30
   13 C                |  19 C                |  27 C                |   120.98
   13 C                |  19 C                |  28 H                |   119.50
   27 C                |  19 C                |  28 H                |   119.51
   13 C                |  20 C                |  29 C                |   109.76
   13 C                |  20 C                |  30 C                |   112.58
   13 C                |  20 C                |  31 H                |   108.00
   29 C                |  20 C                |  30 C                |   111.01
   29 C                |  20 C                |  31 H                |   107.90
   30 C                |  20 C                |  31 H                |   107.41
   14 C                |  21 C                |  27 C                |   120.83
   14 C                |  21 C                |  32 H                |   119.59
   27 C                |  21 C                |  32 H                |   119.55
   14 C                |  22 C                |  33 C                |   111.80
   14 C                |  22 C                |  34 C                |   110.93
   14 C                |  22 C                |  35 H                |   107.87
   33 C                |  22 C                |  34 C                |   110.28
   33 C                |  22 C                |  35 H                |   107.26
   34 C                |  22 C                |  35 H                |   108.54
   17 C                |  23 C                |  36 C                |   120.77
   17 C                |  23 C                |  37 H                |   119.60
   36 C                |  23 C                |  37 H                |   119.63
   17 C                |  24 C                |  38 C                |   110.06
   17 C                |  24 C                |  39 C                |   112.96
   17 C                |  24 C                |  40 H                |   107.94
   38 C                |  24 C                |  39 C                |   110.18
   38 C                |  24 C                |  40 H                |   108.33
   39 C                |  24 C                |  40 H                |   107.20
   18 C                |  25 C                |  36 C                |   120.93
   18 C                |  25 C                |  41 H                |   119.55
   36 C                |  25 C                |  41 H                |   119.51
   18 C                |  26 C                |  42 C                |   112.36
   18 C                |  26 C                |  43 C                |   110.45
   18 C                |  26 C                |  44 H                |   107.81
   42 C                |  26 C                |  43 C                |   110.61
   42 C                |  26 C                |  44 H                |   107.20
   43 C                |  26 C                |  44 H                |   108.23
   19 C                |  27 C                |  21 C                |   120.28
   19 C                |  27 C                |  45 H                |   119.85
   21 C                |  27 C                |  45 H                |   119.87
   20 C                |  29 C                |  46 H                |   111.68
   20 C                |  29 C                |  47 H                |   110.45
   20 C                |  29 C                |  48 H                |   110.59
   46 H                |  29 C                |  47 H                |   107.57
   46 H                |  29 C                |  48 H                |   108.38
   47 H                |  29 C                |  48 H                |   108.05
   20 C                |  30 C                |  49 H                |   111.01
   20 C                |  30 C                |  50 H                |   109.85
   20 C                |  30 C                |  51 H                |   111.42
   49 H                |  30 C                |  50 H                |   108.72
   49 H                |  30 C                |  51 H                |   108.34
   50 H                |  30 C                |  51 H                |   107.40
   22 C                |  33 C                |  52 H                |   111.48
   22 C                |  33 C                |  53 H                |   111.25
   22 C                |  33 C                |  54 H                |   110.18
   52 H                |  33 C                |  53 H                |   107.89
   52 H                |  33 C                |  54 H                |   108.33
   53 H                |  33 C                |  54 H                |   107.58
   22 C                |  34 C                |  55 H                |   111.96
   22 C                |  34 C                |  56 H                |   110.64
   22 C                |  34 C                |  57 H                |   110.38
   55 H                |  34 C                |  56 H                |   108.39
   55 H                |  34 C                |  57 H                |   107.37
   56 H                |  34 C                |  57 H                |   107.95
   23 C                |  36 C                |  25 C                |   120.31
   23 C                |  36 C                |  58 H                |   119.84
   25 C                |  36 C                |  58 H                |   119.84
   24 C                |  38 C                |  59 H                |   112.03
   24 C                |  38 C                |  60 H                |   110.31
   24 C                |  38 C                |  61 H                |   110.68
   59 H                |  38 C                |  60 H                |   107.26
   59 H                |  38 C                |  61 H                |   108.47
   60 H                |  38 C                |  61 H                |   107.95
   24 C                |  39 C                |  62 H                |   111.58
   24 C                |  39 C                |  63 H                |   109.91
   24 C                |  39 C                |  64 H                |   111.27
   62 H                |  39 C                |  63 H                |   108.37
   62 H                |  39 C                |  64 H                |   108.11
   63 H                |  39 C                |  64 H                |   107.45
   26 C                |  42 C                |  65 H                |   110.58
   26 C                |  42 C                |  66 H                |   111.32
   26 C                |  42 C                |  67 H                |   109.95
   65 H                |  42 C                |  66 H                |   108.36
   65 H                |  42 C                |  67 H                |   109.25
   66 H                |  42 C                |  67 H                |   107.30
   26 C                |  43 C                |  68 H                |   111.97
   26 C                |  43 C                |  69 H                |   110.61
   26 C                |  43 C                |  70 H                |   110.35
   68 H                |  43 C                |  69 H                |   108.34
   68 H                |  43 C                |  70 H                |   107.44
   69 H                |  43 C                |  70 H                |   107.99
    3 Ni               |  71 N                |  83 C                |   121.99
    3 Ni               |  71 N                |  94 C                |   118.79
   83 C                |  71 N                |  94 C                |   115.96
   73 C                |  72 C                |  75 C                |   120.18
   73 C                |  72 C                |  81 H                |   119.88
   75 C                |  72 C                |  81 H                |   119.93
   72 C                |  73 C                |  76 C                |   119.99
   72 C                |  73 C                |  82 H                |   119.92
   76 C                |  73 C                |  82 H                |   120.09
   72 C                |  75 C                |  74 H                |   120.21
   72 C                |  75 C                |  78 C                |   119.72
   74 H                |  75 C                |  78 C                |   120.07
   73 C                |  76 C                |  77 C                |   119.91
   73 C                |  76 C                |  79 H                |   121.62
   77 C                |  76 C                |  79 H                |   118.46
    1 C                |  77 C                |  76 C                |   119.36
    1 C                |  77 C                |  78 C                |   120.72
   76 C                |  77 C                |  78 C                |   119.92
   75 C                |  78 C                |  77 C                |   120.27
   75 C                |  78 C                |  80 H                |   120.78
   77 C                |  78 C                |  80 H                |   118.94
   71 N                |  83 C                |  84 C                |   123.90
   71 N                |  83 C                |  85 C                |   119.30
   84 C                |  83 C                |  85 C                |   116.78
   83 C                |  84 C                |  86 C                |   120.91
   83 C                |  84 C                |  87 H                |   120.25
   86 C                |  84 C                |  87 H                |   118.84
   83 C                |  85 C                |  88 C                |   121.86
   83 C                |  85 C                |  89 H                |   118.39
   88 C                |  85 C                |  89 H                |   119.73
   84 C                |  86 C                |  90 C                |   121.43
   84 C                |  86 C                |  91 H                |   118.82
   90 C                |  86 C                |  91 H                |   119.75
   85 C                |  88 C                |  90 C                |   120.67
   85 C                |  88 C                |  92 H                |   119.21
   90 C                |  88 C                |  92 H                |   120.11
   86 C                |  90 C                |  88 C                |   118.35
   86 C                |  90 C                |  93 H                |   120.79
   88 C                |  90 C                |  93 H                |   120.86
   71 N                |  94 C                |  95 H                |   113.05
   71 N                |  94 C                |  96 H                |   111.20
   71 N                |  94 C                |  97 H                |   109.38
   95 H                |  94 C                |  96 H                |   107.67
   95 H                |  94 C                |  97 H                |   107.10
   96 H                |  94 C                |  97 H                |   108.26
 ------------------------------------------------------------------------------
                            number of included internuclear angles:        180
 ==============================================================================



                      Basis "ao basis" -> "" (cartesian)
                      -----
  C (Carbon)
  ----------
            Exponent  Coefficients 
       -------------- ---------------------------------------------------------
  1 S  1.23840169E+03  0.005457
  1 S  1.86290050E+02  0.040638
  1 S  4.22511763E+01  0.180256
  1 S  1.16765579E+01  0.463151
  1 S  3.59305065E+00  0.440872

  2 S  4.02451474E-01  1.000000

  3 S  1.30901827E-01  1.000000

  4 P  9.46809706E+00  0.038388
  4 P  2.01035451E+00  0.211170
  4 P  5.47710047E-01  0.513282

  5 P  1.52686138E-01  1.000000

  H (Hydrogen)
  ------------
            Exponent  Coefficients 
       -------------- ---------------------------------------------------------
  1 S  1.30107010E+01  0.019682
  1 S  1.96225720E+00  0.137965
  1 S  4.44537960E-01  0.478319

  2 S  1.21949620E-01  1.000000

  O (Oxygen)
  ----------
            Exponent  Coefficients 
       -------------- ---------------------------------------------------------
  1 S  2.26617678E+03 -0.005343
  1 S  3.40870102E+02 -0.039890
  1 S  7.73631352E+01 -0.178539
  1 S  2.14796449E+01 -0.464277
  1 S  6.65894331E+00 -0.443097

  2 S  8.09759757E-01  1.000000

  3 S  2.55307722E-01  1.000000

  4 P  1.77215043E+01  0.043395
  4 P  3.86355054E+00  0.230941
  4 P  1.04809209E+00  0.513753

  5 P  2.76415444E-01  1.000000

  N (Nitrogen)
  ------------
            Exponent  Coefficients 
       -------------- ---------------------------------------------------------
  1 S  1.71284159E+03 -0.005393
  1 S  2.57648127E+02 -0.040222
  1 S  5.84582459E+01 -0.179311
[...]
  ----- ------------  ---------------      ----- ------------  ---------------
   202     11.789094  23 C  s               220     11.783780  25 C  s         
   157    -11.556803  18 C  s               113     11.345539  10 C  s         
   478    -11.400072  84 C  s               148    -10.844469  17 C  s         
   291    -10.554683  36 C  s               507     10.525296  88 C  s         
   496     10.255635  86 C  s               518     -9.533820  90 C  s         

 Vector  526  Occ=0.000000D+00  E= 1.772338D+00
              MO Center= -2.1D-01, -1.2D+00,  8.2D-03, r^2= 1.6D+01
   Bfn.  Coefficient  Atom+Function         Bfn.  Coefficient  Atom+Function  
  ----- ------------  ---------------      ----- ------------  ---------------
   166     12.307388  19 C  s               184     11.872872  21 C  s         
   100    -11.585968   8 C  py               95     10.840075   8 C  s         
   135    -10.857154  14 C  s               126    -10.782721  13 C  s         
   238    -10.728895  27 C  s               478     -7.815803  84 C  s         
   132     -7.653857  13 C  pz              141      6.439680  14 C  pz        

 Vector  527  Occ=0.000000D+00  E= 1.798030D+00
              MO Center=  6.2D-01, -4.0D-01, -1.2D+00, r^2= 1.2D+01
   Bfn.  Coefficient  Atom+Function         Bfn.  Coefficient  Atom+Function  
  ----- ------------  ---------------      ----- ------------  ---------------
   487      9.554297  85 C  s               507     -6.847845  88 C  s         
   496     -6.338850  86 C  s               475     -5.978424  83 C  pz        
   157     -5.920071  18 C  s               220      5.906250  25 C  s         
   202      5.849598  23 C  s               518      5.552130  90 C  s         
   118      5.484576  10 C  py              113      5.426549  10 C  s         

 Vector  528  Occ=0.000000D+00  E= 1.814366D+00
              MO Center=  3.8D-01, -6.8D-02, -1.1D+00, r^2= 9.4D+00
   Bfn.  Coefficient  Atom+Function         Bfn.  Coefficient  Atom+Function  
  ----- ------------  ---------------      ----- ------------  ---------------
    22     17.817579   3 Ni s               469      5.537380  83 C  s         
    23     -4.487865   3 Ni s               220      4.159311  25 C  s         
    56     -4.113521   3 Ni dzz             113      4.133353  10 C  s         
   229     -3.964717  26 C  s                51     -3.878575   3 Ni dxx       
   118      3.734502  10 C  py              518     -3.697866  90 C  s         

 Vector  529  Occ=0.000000D+00  E= 1.924084D+00
              MO Center= -1.2D+00,  7.6D-01,  4.5D-01, r^2= 6.2D+00
   Bfn.  Coefficient  Atom+Function         Bfn.  Coefficient  Atom+Function  
  ----- ------------  ---------------      ----- ------------  ---------------
   100     -5.523069   8 C  py               22      5.317402   3 Ni s         
    73     -4.430415   5 N  py               86      4.295849   7 C  s         
   104     -4.286139   9 C  s                68      3.624798   5 N  s         
   175     -3.565503  20 C  s                81     -3.274418   6 N  px        
   118     -3.007652  10 C  py              113      2.824367  10 C  s         

 Vector  530  Occ=0.000000D+00  E= 1.946828D+00
              MO Center=  5.9D-01,  2.3D-01, -1.2D+00, r^2= 7.1D+00
   Bfn.  Coefficient  Atom+Function         Bfn.  Coefficient  Atom+Function  
  ----- ------------  ---------------      ----- ------------  ---------------
    22     21.217308   3 Ni s                23     -7.458901   3 Ni s         
    54     -5.222917   3 Ni dyy              12     -5.135442   2 O  s         
    56     -4.986167   3 Ni dzz             487      4.708702  85 C  s         
    51     -4.361480   3 Ni dxx               8      3.030207   1 C  py        
   396     -2.971726  71 N  s                 9     -2.877297   1 C  pz        

 Vector  531  Occ=0.000000D+00  E= 2.877114D+00
              MO Center=  3.3D-02, -2.6D-01, -1.0D+00, r^2= 2.7D+00
   Bfn.  Coefficient  Atom+Function         Bfn.  Coefficient  Atom+Function  
  ----- ------------  ---------------      ----- ------------  ---------------
    22     10.856744   3 Ni s                21      5.645899   3 Ni s         
    23     -5.024024   3 Ni s                20     -3.126246   3 Ni s         
    45     -2.770721   3 Ni dxx              48     -2.772259   3 Ni dyy       
    50     -2.766313   3 Ni dzz              34      1.901884   3 Ni py        
   487      1.707955  85 C  s               175     -1.670836  20 C  s         

 Vector  532  Occ=0.000000D+00  E= 3.153082D+00
              MO Center=  2.8D-01, -4.6D-01, -6.3D-01, r^2= 1.5D+00
   Bfn.  Coefficient  Atom+Function         Bfn.  Coefficient  Atom+Function  
  ----- ------------  ---------------      ----- ------------  ---------------
    22      7.146690   3 Ni s                21      2.073273   3 Ni s         
   487      1.570913  85 C  s                20     -1.508247   3 Ni s         
   462     -1.512880  80 H  s                51     -1.412007   3 Ni dxx       
    56     -1.363210   3 Ni dzz              50     -1.293712   3 Ni dzz       
    33      1.287066   3 Ni px               45     -1.277892   3 Ni dxx       

 Vector  533  Occ=0.000000D+00  E= 3.290260D+00
              MO Center=  1.8D-01, -3.5D-01, -8.7D-01, r^2= 1.3D+00
   Bfn.  Coefficient  Atom+Function         Bfn.  Coefficient  Atom+Function  
  ----- ------------  ---------------      ----- ------------  ---------------
    22      2.666048   3 Ni s               448     -2.344926  77 C  py        
   434      2.272712  76 C  s                 8      1.811681   1 C  py        
   452     -1.715232  78 C  s               447     -1.370157  77 C  px        
     3     -1.357513   1 C  s                 7      1.237544   1 C  px        
    31      1.223642   3 Ni py              449      1.187301  77 C  pz        

 Vector  534  Occ=0.000000D+00  E= 3.382000D+00
              MO Center=  8.6D-02, -4.6D-01, -8.5D-01, r^2= 1.4D+00
   Bfn.  Coefficient  Atom+Function         Bfn.  Coefficient  Atom+Function  
  ----- ------------  ---------------      ----- ------------  ---------------
   487     -2.116162  85 C  s               475      1.938157  83 C  pz        
    22     -1.756318   3 Ni s                64     -1.591757   4 C  py        
   478      1.285066  84 C  s                77      1.260031   6 N  s         
    63      1.216966   4 C  px               35     -1.088908   3 Ni pz        
   402     -1.005954  71 N  pz              473     -0.992769  83 C  px        

 Vector  535  Occ=0.000000D+00  E= 4.757408D+00
              MO Center=  8.5D-02, -3.7D-01, -8.5D-01, r^2= 6.3D-01
   Bfn.  Coefficient  Atom+Function         Bfn.  Coefficient  Atom+Function  
  ----- ------------  ---------------      ----- ------------  ---------------
    46      1.025382   3 Ni dxy              45     -0.957114   3 Ni dxx       
    22      0.918145   3 Ni s                40     -0.822014   3 Ni dxy       
    49      0.794040   3 Ni dyz              39      0.676904   3 Ni dxx       
   487      0.679778  85 C  s                43     -0.631688   3 Ni dyz       
    59     -0.628779   4 C  s                56     -0.615690   3 Ni dzz       

 Vector  536  Occ=0.000000D+00  E= 4.808721D+00
              MO Center=  7.6D-02, -4.1D-01, -8.3D-01, r^2= 6.8D-01
   Bfn.  Coefficient  Atom+Function         Bfn.  Coefficient  Atom+Function  
  ----- ------------  ---------------      ----- ------------  ---------------
   443      1.323875  77 C  s                95      1.296446   8 C  s         
    49     -1.171354   3 Ni dyz              47     -1.120488   3 Ni dxz       
     9     -1.071072   1 C  pz              447     -1.005822  77 C  px        
     3     -0.993751   1 C  s                43      0.920942   3 Ni dyz       
     7     -0.892992   1 C  px               41      0.882330   3 Ni dxz       

 Vector  537  Occ=0.000000D+00  E= 4.832457D+00
              MO Center=  9.2D-02, -3.7D-01, -8.7D-01, r^2= 6.6D-01
   Bfn.  Coefficient  Atom+Function         Bfn.  Coefficient  Atom+Function  
  ----- ------------  ---------------      ----- ------------  ---------------
    64     -1.258813   4 C  py               22      1.207397   3 Ni s         
    48     -1.143047   3 Ni dyy              68     -1.057367   5 N  s         
    77      0.932696   6 N  s                56     -0.856452   3 Ni dzz       
    50      0.812171   3 Ni dzz              42      0.788661   3 Ni dyy       
    44     -0.733558   3 Ni dzz               3     -0.724651   1 C  s         

 Vector  538  Occ=0.000000D+00  E= 4.849906D+00
              MO Center=  6.3D-02, -4.0D-01, -8.5D-01, r^2= 6.7D-01
   Bfn.  Coefficient  Atom+Function         Bfn.  Coefficient  Atom+Function  
  ----- ------------  ---------------      ----- ------------  ---------------
    22      4.026676   3 Ni s                 3     -1.538909   1 C  s         
    46     -1.376408   3 Ni dxy              47      1.329540   3 Ni dxz       
    34      1.179106   3 Ni py               40      1.070061   3 Ni dxy       
    41     -1.029980   3 Ni dxz              53     -0.955513   3 Ni dxz       
    52      0.950353   3 Ni dxy              45     -0.830543   3 Ni dxx       

 Vector  539  Occ=0.000000D+00  E= 5.053349D+00
              MO Center=  8.8D-02, -3.8D-01, -8.5D-01, r^2= 6.9D-01
   Bfn.  Coefficient  Atom+Function         Bfn.  Coefficient  Atom+Function  
  ----- ------------  ---------------      ----- ------------  ---------------
    22      2.209317   3 Ni s                49     -1.445535   3 Ni dyz       
    55      1.420804   3 Ni dyz              46      1.303769   3 Ni dxy       
    52     -1.276662   3 Ni dxy              47      1.076447   3 Ni dxz       
    43      1.052901   3 Ni dyz              53     -1.049063   3 Ni dxz       
    40     -0.948205   3 Ni dxy              63     -0.905356   4 C  px        

 Vector  540  Occ=0.000000D+00  E= 1.022451D+01
              MO Center=  9.1D-02, -3.9D-01, -8.5D-01, r^2= 6.7D-01
   Bfn.  Coefficient  Atom+Function         Bfn.  Coefficient  Atom+Function  
  ----- ------------  ---------------      ----- ------------  ---------------
    21     27.812313   3 Ni s                20    -17.574769   3 Ni s         
    45     -7.615901   3 Ni dxx              48     -7.611552   3 Ni dyy       
    50     -7.574320   3 Ni dzz              22      4.901939   3 Ni s         
    23     -1.918981   3 Ni s                19      1.511535   3 Ni s         
    56     -0.773876   3 Ni dzz             487      0.724990  85 C  s         

 Vector  541  Occ=0.000000D+00  E= 4.990632D+01
              MO Center=  8.4D-02, -3.8D-01, -8.5D-01, r^2= 1.1D-01
   Bfn.  Coefficient  Atom+Function         Bfn.  Coefficient  Atom+Function  
  ----- ------------  ---------------      ----- ------------  ---------------
    20     21.452682   3 Ni s                21    -20.745890   3 Ni s         
    45      5.177647   3 Ni dxx              48      5.175250   3 Ni dyy       
    50      5.167159   3 Ni dzz              19     -4.354390   3 Ni s         
    39     -2.734925   3 Ni dxx              42     -2.734197   3 Ni dyy       
    44     -2.731459   3 Ni dzz              22     -2.095445   3 Ni s         

 Vector  542  Occ=0.000000D+00  E= 1.173906D+02
              MO Center=  8.4D-02, -3.8D-01, -8.5D-01, r^2= 2.9D-02
   Bfn.  Coefficient  Atom+Function         Bfn.  Coefficient  Atom+Function  
  ----- ------------  ---------------      ----- ------------  ---------------
    26      0.834080   3 Ni pz               24      0.517229   3 Ni px        
    25     -0.413559   3 Ni py               29     -0.316731   3 Ni pz        
    22     -0.221948   3 Ni s                27     -0.196344   3 Ni px        
    32      0.165785   3 Ni pz               28      0.157117   3 Ni py        
    30      0.102960   3 Ni px              462      0.100191  80 H  s         

 Vector  543  Occ=0.000000D+00  E= 1.175631D+02
              MO Center=  8.4D-02, -3.8D-01, -8.5D-01, r^2= 3.1D-02
   Bfn.  Coefficient  Atom+Function         Bfn.  Coefficient  Atom+Function  
  ----- ------------  ---------------      ----- ------------  ---------------
    25      0.892865   3 Ni py               24      0.575540   3 Ni px        
    28     -0.345148   3 Ni py               27     -0.222426   3 Ni px        
   448     -0.200432  77 C  py              434      0.195668  76 C  s         
    31      0.191378   3 Ni py               22      0.174397   3 Ni s         
   452     -0.161480  78 C  s                 8      0.154143   1 C  py        

 Vector  544  Occ=0.000000D+00  E= 1.175960D+02
              MO Center=  8.3D-02, -3.8D-01, -8.5D-01, r^2= 3.1D-02
   Bfn.  Coefficient  Atom+Function         Bfn.  Coefficient  Atom+Function  
  ----- ------------  ---------------      ----- ------------  ---------------
    24      0.732724   3 Ni px               26     -0.657260   3 Ni pz        
    25     -0.409168   3 Ni py               27     -0.284751   3 Ni px        
    29      0.255440   3 Ni pz               30      0.160347   3 Ni px        
    28      0.158976   3 Ni py               32     -0.143671   3 Ni pz        
   487     -0.140985  85 C  s               475      0.140235  83 C  pz        

 Vector  545  Occ=0.000000D+00  E= 6.766347D+02
              MO Center=  8.3D-02, -3.8D-01, -8.5D-01, r^2= 2.3D-02
   Bfn.  Coefficient  Atom+Function         Bfn.  Coefficient  Atom+Function  
  ----- ------------  ---------------      ----- ------------  ---------------
    20     28.864732   3 Ni s                21    -15.335443   3 Ni s         
    39     -7.285659   3 Ni dxx              42     -7.285494   3 Ni dyy       
    44     -7.286234   3 Ni dzz              19     -4.275209   3 Ni s         
    45      3.402526   3 Ni dxx              48      3.401915   3 Ni dyy       
    50      3.404451   3 Ni dzz              54      0.114237   3 Ni dyy       


 center of mass
 --------------
 x =   0.05375474 y =  -0.02112961 z =  -0.03805075

 moments of inertia (a.u.)
 ------------------
       25877.776201826040           0.000000000000           0.000000000014
           0.000000000000       20349.506236644116           0.000000000001
           0.000000000014           0.000000000001       29095.183016965082

     Multipole analysis of the density
     ---------------------------------

     L   x y z        total         alpha         beta         nuclear
     -   - - -        -----         -----         ----         -------
     0   0 0 0      0.000000   -172.000000   -172.000000    344.000000

     1   1 0 0     -1.868876     -0.147885     -0.147885     -1.573106
     1   0 1 0      1.031044     -3.090983     -3.090983      7.213010
     1   0 0 1      2.118465     -7.005247     -7.005247     16.128959

     2   2 0 0   -203.358714  -3394.845700  -3394.845700   6586.332686
     2   1 1 0      4.157916      4.577266      4.577266     -4.996616
     2   1 0 1      3.552481    -45.239990    -45.239990     94.032461
     2   0 2 0   -210.550165  -4869.131063  -4869.131063   9527.711961
     2   0 1 1     -3.044421      2.289026      2.289026     -7.622474
     2   0 0 2   -206.504152  -2578.983583  -2578.983583   4951.463014


 Task  times  cpu:     2817.8s     wall:     2817.8s


                                NWChem Input Module
                                -------------------


 Summary of allocated global arrays
-----------------------------------
  No active global arrays


MA_summarize_allocated_blocks: starting scan ...
heap block 'gridpts', handle 92, address 0x64fee955a160:
	type of elements:		double precision
	number of elements:		203683869
	address of client space:	0x64fee955a1c0
	index for client space:		115157267
	total number of bytes:		1629471056
MA_summarize_allocated_blocks: scan completed: 1 heap block, 0 stack blocks
MA usage statistics:

	allocation statistics:
					      heap	     stack
					      ----	     -----
	current number of blocks	         1	         0
	maximum number of blocks	        34	        58
	current total bytes		1629471056	         0
	maximum total bytes		1648842024	  43761064
	maximum total K-bytes		   1648843	     43762
	maximum total M-bytes		      1649	        44


                                     CITATION
                                     --------
                Please cite the following reference when publishing
                           results obtained with NWChem:

          E. Apra, E. J. Bylaska, W. A. de Jong, N. Govind, K. Kowalski,
       T. P. Straatsma, M. Valiev, H. J. J. van Dam, Y. Alexeev, J. Anchell,
       V. Anisimov, F. W. Aquino, R. Atta-Fynn, J. Autschbach, N. P. Bauman,
     J. C. Becca, D. E. Bernholdt, K. Bhaskaran-Nair, S. Bogatko, P. Borowski,
         J. Boschen, J. Brabec, A. Bruner, E. Cauet, Y. Chen, G. N. Chuev,
      C. J. Cramer, J. Daily, M. J. O. Deegan, T. H. Dunning Jr., M. Dupuis,
   K. G. Dyall, G. I. Fann, S. A. Fischer, A. Fonari, H. Fruchtl, L. Gagliardi,
      J. Garza, N. Gawande, S. Ghosh, K. Glaesemann, A. W. Gotz, J. Hammond,
       V. Helms, E. D. Hermes, K. Hirao, S. Hirata, M. Jacquelin, L. Jensen,
   B. G. Johnson, H. Jonsson, R. A. Kendall, M. Klemm, R. Kobayashi, V. Konkov,
      S. Krishnamoorthy, M. Krishnan, Z. Lin, R. D. Lins, R. J. Littlefield,
      A. J. Logsdail, K. Lopata, W. Ma, A. V. Marenich, J. Martin del Campo,
   D. Mejia-Rodriguez, J. E. Moore, J. M. Mullin, T. Nakajima, D. R. Nascimento,
    J. A. Nichols, P. J. Nichols, J. Nieplocha, A. Otero-de-la-Roza, B. Palmer,
    A. Panyala, T. Pirojsirikul, B. Peng, R. Peverati, J. Pittner, L. Pollack,
   R. M. Richard, P. Sadayappan, G. C. Schatz, W. A. Shelton, D. W. Silverstein,
   D. M. A. Smith, T. A. Soares, D. Song, M. Swart, H. L. Taylor, G. S. Thomas,
            V. Tipparaju, D. G. Truhlar, K. Tsemekhman, T. Van Voorhis,
      A. Vazquez-Mayagoitia, P. Verma, O. Villa, A. Vishnu, K. D. Vogiatzis,
        D. Wang, J. H. Weare, M. J. Williamson, T. L. Windus, K. Wolinski,
        A. T. Wong, Q. Wu, C. Yang, Q. Yu, M. Zacharias, Z. Zhang, Y. Zhao,
                                and R. J. Harrison
                        "NWChem: Past, present, and future
                         J. Chem. Phys. 152, 184102 (2020)
                               doi:10.1063/5.0004997

                                      AUTHORS
                                      -------
  E. Apra, E. J. Bylaska, N. Govind, K. Kowalski, M. Valiev, D. Mejia-Rodriguez,
       A. Kunitsa, N. P. Bauman, A. Panyala, W. A. de Jong, T. P. Straatsma,
   H. J. J. van Dam, D. Wang, T. L. Windus, J. Hammond, J. Autschbach, A. Woods,
    K. Bhaskaran-Nair, J. Brabec, K. Lopata, S. A. Fischer, S. Krishnamoorthy,
     M. Jacquelin, W. Ma, M. Klemm, O. Villa, Y. Chen, V. Anisimov, F. Aquino,
     S. Hirata, M. T. Hackler, E. Hermes, L. Jensen, J. E. Moore, J. C. Becca,
      V. Konjkov, T. Risthaus, M. Malagoli, A. Marenich, A. Otero-de-la-Roza,
        J. Mullin, P. Nichols, R. Peverati, J. Pittner, Y. Zhao, P.-D. Fan,
        A. Fonari, M. J. Williamson, R. J. Harrison, J. R. Rehr, M. Dupuis,
     D. Silverstein, D. M. A. Smith, J. Nieplocha, V. Tipparaju, M. Krishnan,
     B. E. Van Kuiken, A. Vazquez-Mayagoitia, M. Swart, Q. Wu, T. Van Voorhis,
     A. A. Auer, M. Nooijen, L. D. Crosby, E. Brown, G. Cisneros, G. I. Fann,
   H. Fruchtl, J. Garza, K. Hirao, R. A. Kendall, J. A. Nichols, K. Tsemekhman,
    K. Wolinski, J. Anchell, D. E. Bernholdt, P. Borowski, T. Clark, D. Clerc,
   H. Dachsel, M. J. O. Deegan, K. Dyall, D. Elwood, E. Glendening, M. Gutowski,
   A. C. Hess, J. Jaffe, B. G. Johnson, J. Ju, R. Kobayashi, R. Kutteh, Z. Lin,
   R. Littlefield, X. Long, B. Meng, T. Nakajima, S. Niu, L. Pollack, M. Rosing,
   K. Glaesemann, G. Sandrone, M. Stave, H. Taylor, G. Thomas, J. H. van Lenthe,
                               A. T. Wong, Z. Zhang.

 Total times  cpu:     2818.3s     wall:     2818.3s
