 argument  1 = nwchem.in
  NWChem w/ OpenMP: maximum threads =    1
                                         
                                         


             Northwest Computational Chemistry Package (NWChem) 7.2.3
             --------------------------------------------------------


                    Environmental Molecular Sciences Laboratory
                       Pacific Northwest National Laboratory
                                Richland, WA 99352

                              Copyright (c) 1994-2022
                       Pacific Northwest National Laboratory
                            Battelle Memorial Institute

             NWChem is an open-source computational chemistry package
                        distributed under the terms of the
                      Educational Community License (ECL) 2.0
             A copy of the license is included with this distribution
                              in the LICENSE.TXT file

                                  ACKNOWLEDGMENT
                                  --------------

            This software and its documentation were developed at the
            EMSL at Pacific Northwest National Laboratory, a multiprogram
            national laboratory, operated for the U.S. Department of Energy
            by Battelle under Contract Number DE-AC05-76RL01830. Support
            for this work was provided by the Department of Energy Office
            of Biological and Environmental Research, Office of Basic
            Energy Sciences, and the Office of Advanced Scientific Computing.


           Job information
           ---------------

    hostname        = 2abf18d697bf
    program         = nwchem
    date            = Thu Jul  3 19:28:48 2025

    compiled        = Fri_May_02_22:05:35_2025
    source          = /opt/nwchem
    nwchem branch   = 7.2.3
    nwchem revision = N/A
    ga revision     = 5.9.1
    use scalapack   = T
    input           = nwchem.in
    prefix          = ni_singlepoint.
    data base       = ./ni_singlepoint.db
    status          = startup
    nproc           =        5
    time left       =     -1s



           Memory information
           ------------------

    heap     =    509724444 doubles =     3888.9 Mbytes
    stack    =    509724445 doubles =     3888.9 Mbytes
    global   =    291271111 doubles =     2222.2 Mbytes (distinct from heap & stack)
    total    =   1310720000 doubles =    10000.0 Mbytes
    verify   = yes
    hardfail = no 


           Directory information
           ---------------------

  0 permanent = .
  0 scratch   = .




                                NWChem Input Module
                                -------------------


                          Ni complex single-point energy
                          ------------------------------

 Scaling coordinates for geometry "geometry" by  1.889725989
 (inverse scale =  0.529177249)

 C1  symmetry detected

          ------
          auto-z
          ------
  no constraints, skipping    0.0000000000000000     
  no constraints, skipping    0.0000000000000000     


                             Geometry "geometry" -> ""
                             -------------------------

 Output coordinates in angstroms (scale by  1.889725989 to convert to a.u.)

  No.       Tag          Charge          X              Y              Z
 ---- ---------------- ---------- -------------- -------------- --------------
    1 C                    6.0000     1.58329750     0.47787817    -1.34862404
    2 O                    8.0000     1.39350080     1.27374963    -2.26248009
    3 Ni                  28.0000     0.07524523    -0.44085612    -0.71193001
    4 C                    6.0000    -1.23576792     0.41746437     0.30343220
    5 N                    7.0000    -2.17901485    -0.35932924     0.86841364
    6 N                    7.0000    -1.58528632     1.68779905     0.52548466
    7 C                    6.0000    -3.21809556     0.38245223     1.57900450
    8 C                    6.0000    -2.07816114    -1.78220974     0.86688840
    9 C                    6.0000    -2.89065495     1.82637667     1.17943963
   10 C                    6.0000    -0.85269563     2.83251558     0.08084359
   11 H                    1.0000    -4.21042156     0.06743816     1.25285179
   12 H                    1.0000    -3.14254888     0.21633645     2.65743333
   13 C                    6.0000    -2.63489814    -2.49745950    -0.19965098
   14 C                    6.0000    -1.41425361    -2.42057426     1.92148185
   15 H                    1.0000    -3.61799269     2.23622259     0.47392922
   16 H                    1.0000    -2.82477338     2.50144767     2.03299190
   17 C                    6.0000    -0.03363179     3.49052889     1.00268440
   18 C                    6.0000    -0.99677668     3.27317709    -1.23827996
   19 C                    6.0000    -2.48703535    -3.88096952    -0.20662049
   20 C                    6.0000    -3.40110470    -1.80862326    -1.31166078
   21 C                    6.0000    -1.30241825    -3.80571747     1.88078202
   22 C                    6.0000    -0.83227682    -1.64373703     3.08598703
   23 C                    6.0000     0.67918139     4.60126389     0.56591794
   24 C                    6.0000     0.07841867     3.03989300     2.44666835
   25 C                    6.0000    -0.26445371     4.38680591    -1.63151078
   26 C                    6.0000    -1.95927847     2.61039255    -2.20490321
   27 C                    6.0000    -1.82548336    -4.53012910     0.82160123
   28 H                    1.0000    -2.89623618    -4.45767686    -1.02709851
   29 C                    6.0000    -4.87483913    -2.22216310    -1.28278941
   30 C                    6.0000    -2.77688333    -2.07664515    -2.68109550
   31 H                    1.0000    -3.34968315    -0.73265751    -1.13511790
   32 H                    1.0000    -0.78939798    -4.32441848     2.68172181
   33 C                    6.0000     0.65981324    -1.92303311     3.26386261
   34 C                    6.0000    -1.60421611    -1.94610965     4.37256933
   35 H                    1.0000    -0.93435403    -0.57927815     2.86572056
   36 C                    6.0000     0.57004985     5.04199690    -0.74167469
   37 H                    1.0000     1.33088976     5.12377526     1.25599854
   38 C                    6.0000    -0.46625754     4.10862466     3.39832824
   39 C                    6.0000     1.51524440     2.66661450     2.80724264
   40 H                    1.0000    -0.52903665     2.13979783     2.56653746
   41 H                    1.0000    -0.34199114     4.74299428    -2.65081091
   42 C                    6.0000    -1.33941641     2.35301911    -3.57807734
   43 C                    6.0000    -3.22874271     3.45784565    -2.34524509
   44 H                    1.0000    -2.23646586     1.64004523    -1.78655541
   45 H                    1.0000    -1.71706099    -5.60710225     0.79817838
   46 H                    1.0000    -5.32538220    -2.01786967    -0.30950222
   47 H                    1.0000    -4.98568176    -3.29022562    -1.48101614
   48 H                    1.0000    -5.43925213    -1.67955865    -2.04314156
   49 H                    1.0000    -1.73265895    -1.75814776    -2.70263264
   50 H                    1.0000    -3.31706146    -1.53176529    -3.45766905
   51 H                    1.0000    -2.81331314    -3.13875990    -2.93285801
   52 H                    1.0000     1.20708589    -1.69929964     2.34868808
   53 H                    1.0000     0.84221011    -2.96802902     3.52363422
   54 H                    1.0000     1.06810402    -1.30402074     4.06505739
   55 H                    1.0000    -2.67012207    -1.73968963     4.25777077
   56 H                    1.0000    -1.22340401    -1.34436683     5.19961414
   57 H                    1.0000    -1.50016596    -2.99818198     4.64668947
   58 H                    1.0000     1.13738608     5.90419066    -1.06944696
   59 H                    1.0000    -1.49742543     4.37559428     3.15762859
   60 H                    1.0000     0.13104621     5.02084248     3.34046906
   61 H                    1.0000    -0.43407311     3.75434685     4.43069005
   62 H                    1.0000     1.89880357     1.89610997     2.13932657
   63 H                    1.0000     1.56592492     2.29440002     3.83323724
   64 H                    1.0000     2.17718125     3.53209760     2.73389587
   65 H                    1.0000    -0.39578419     1.81987556    -3.47839325
   66 H                    1.0000    -1.15209105     3.28870850    -4.10991748
   67 H                    1.0000    -2.02807881     1.76552475    -4.18983552
   68 H                    1.0000    -3.70542123     3.64818824    -1.38155916
   69 H                    1.0000    -3.95141799     2.96103574    -2.99601154
   70 H                    1.0000    -2.98779647     4.42693251    -2.78837530
   71 N                    7.0000     1.38523510    -1.17940321    -1.82606116
   72 C                    6.0000     4.70200637     1.41399495     1.46316756
   73 C                    6.0000     4.36622762     2.28988944     0.43952478
   74 H                    1.0000     4.27306566    -0.47958403     2.38043782
   75 C                    6.0000     4.02325987     0.20899710     1.58286795
   76 C                    6.0000     3.36434619     1.95982673    -0.46183804
   77 C                    6.0000     2.68443139     0.74613215    -0.35099996
   78 C                    6.0000     3.01634142    -0.11689551     0.68664544
   79 H                    1.0000     3.08973354     2.63431331    -1.26223175
   80 H                    1.0000     2.48662397    -1.05107377     0.79269520
   81 H                    1.0000     5.48364505     1.67087154     2.16728921
   82 H                    1.0000     4.88969070     3.23371503     0.34164921
   83 C                    6.0000     2.15886266    -2.29578597    -1.37916630
   84 C                    6.0000     3.40902111    -2.55973780    -1.93562992
   85 C                    6.0000     1.66543974    -3.16345773    -0.40594488
   86 C                    6.0000     4.15168393    -3.65407264    -1.51995033
   87 H                    1.0000     3.79974177    -1.89570313    -2.69582552
   88 C                    6.0000     2.41848377    -4.24930746     0.02315602
   89 H                    1.0000     0.68160819    -2.98312369     0.01638695
   90 C                    6.0000     3.66446821    -4.50134317    -0.53344535
   91 H                    1.0000     5.12019189    -3.84308396    -1.96567028
   92 H                    1.0000     2.02389302    -4.90715477     0.78902457
   93 H                    1.0000     4.24920682    -5.35273469    -0.20843405
   94 C                    6.0000     1.10636426    -1.23523727    -3.26527865
   95 H                    1.0000     2.01247834    -1.08658999    -3.85869635
   96 H                    1.0000     0.67242648    -2.20334635    -3.52883460
   97 H                    1.0000     0.40914324    -0.44574101    -3.52915246

      Atomic Mass 
      ----------- 

      C                 12.000000
      O                 15.994910
      Ni                57.935300
      N                 14.003070
      H                  1.007825


 Effective nuclear repulsion energy (a.u.)    7268.4444098390

            Nuclear Dipole moment (a.u.) 
            ----------------------------
        X                 Y               Z
 ---------------- ---------------- ----------------
     0.0000000000    -0.0000000000     0.0000000000



                                Z-matrix (autoz)
                                -------- 

 Units are Angstrom for bonds and degrees for angles

      Type          Name      I     J     K     L     M      Value
      ----------- --------  ----- ----- ----- ----- ----- ----------
    1 Stretch                  1     2                       1.22661
    2 Stretch                  1     3                       1.87715
    3 Stretch                  1    71                       1.73602
    4 Stretch                  1    77                       1.50987
    5 Stretch                  3     4                       1.86720
    6 Stretch                  3    71                       1.87158
    7 Stretch                  4     5                       1.34623
    8 Stretch                  4     6                       1.33612
    9 Stretch                  5     7                       1.46112
   10 Stretch                  5     8                       1.42645
   11 Stretch                  6     9                       1.46658
   12 Stretch                  6    10                       1.42995
   13 Stretch                  7     9                       1.53355
   14 Stretch                  7    11                       1.09102
   15 Stretch                  7    12                       1.09376
   16 Stretch                  8    13                       1.39966
   17 Stretch                  8    14                       1.40016
   18 Stretch                  9    15                       1.09304
   19 Stretch                  9    16                       1.09024
   20 Stretch                 10    17                       1.39773
   21 Stretch                 10    18                       1.39822
   22 Stretch                 13    19                       1.39141
   23 Stretch                 13    20                       1.51596
   24 Stretch                 14    21                       1.39025
   25 Stretch                 14    22                       1.51600
   26 Stretch                 17    23                       1.39018
   27 Stretch                 17    24                       1.51681
   28 Stretch                 18    25                       1.38964
   29 Stretch                 18    26                       1.51659
   30 Stretch                 19    27                       1.38430
   31 Stretch                 19    28                       1.08315
   32 Stretch                 20    29                       1.53093
   33 Stretch                 20    30                       1.52867
   34 Stretch                 20    31                       1.09156
   35 Stretch                 21    27                       1.38572
   36 Stretch                 21    32                       1.08340
   37 Stretch                 22    33                       1.52839
   38 Stretch                 22    34                       1.53056
   39 Stretch                 22    35                       1.09179
   40 Stretch                 23    36                       1.38418
   41 Stretch                 23    37                       1.08349
   42 Stretch                 24    38                       1.53118
   43 Stretch                 24    39                       1.52768
   44 Stretch                 24    40                       1.09249
   45 Stretch                 25    36                       1.38473
   46 Stretch                 25    41                       1.08252
   47 Stretch                 26    42                       1.52842
   48 Stretch                 26    43                       1.53278
   49 Stretch                 26    44                       1.09244
   50 Stretch                 27    45                       1.08267
   51 Stretch                 29    46                       1.09179
   52 Stretch                 29    47                       1.09194
   53 Stretch                 29    48                       1.09138
   54 Stretch                 30    49                       1.09193
   55 Stretch                 30    50                       1.09167
   56 Stretch                 30    51                       1.09215
   57 Stretch                 33    52                       1.08955
   58 Stretch                 33    53                       1.09214
   59 Stretch                 33    54                       1.09169
   60 Stretch                 34    55                       1.09176
   61 Stretch                 34    56                       1.09138
   62 Stretch                 34    57                       1.09217
   63 Stretch                 36    58                       1.08290
   64 Stretch                 38    59                       1.09202
   65 Stretch                 38    60                       1.09191
   66 Stretch                 38    61                       1.09193
   67 Stretch                 39    62                       1.08945
   68 Stretch                 39    63                       1.09260
   69 Stretch                 39    64                       1.09206
   70 Stretch                 42    65                       1.08840
   71 Stretch                 42    66                       1.09246
   72 Stretch                 42    67                       1.09254
   73 Stretch                 43    68                       1.09185
   74 Stretch                 43    69                       1.09205
   75 Stretch                 43    70                       1.09250
   76 Stretch                 71    83                       1.42987
   77 Stretch                 71    94                       1.46705
   78 Stretch                 72    73                       1.38845
   79 Stretch                 72    75                       1.38818
   80 Stretch                 72    81                       1.08293
   81 Stretch                 73    76                       1.38750
   82 Stretch                 73    82                       1.08370
   83 Stretch                 74    75                       1.08290
   84 Stretch                 75    78                       1.38683
   85 Stretch                 76    77                       1.39557
   86 Stretch                 76    79                       1.08212
   87 Stretch                 77    78                       1.38985
   88 Stretch                 78    80                       1.07914
   89 Stretch                 83    84                       1.39363
   90 Stretch                 83    85                       1.39409
   91 Stretch                 84    86                       1.38633
   92 Stretch                 84    87                       1.08236
   93 Stretch                 85    88                       1.38934
   94 Stretch                 85    89                       1.08573
   95 Stretch                 86    90                       1.38868
   96 Stretch                 86    91                       1.08277
   97 Stretch                 88    90                       1.38773
   98 Stretch                 88    92                       1.08398
   99 Stretch                 90    93                       1.08278
  100 Stretch                 94    95                       1.09329
  101 Stretch                 94    96                       1.09316
  102 Stretch                 94    97                       1.08584
  103 Bend                     1     3     4               121.56951
  104 Bend                     1     3    71                55.17381
  105 Bend                     1    71     3                62.57587
  106 Bend                     1    71    83               126.70283
  107 Bend                     1    71    94               109.13658
  108 Bend                     1    77    76               117.21571
  109 Bend                     1    77    78               123.85791
  110 Bend                     2     1     3               116.48437
  111 Bend                     2     1    71               113.38214
  112 Bend                     2     1    77               119.32962
  113 Bend                     3     1    71                62.25032
  114 Bend                     3     1    77               116.66288
  115 Bend                     3     4     5               117.06009
  116 Bend                     3     4     6               135.32403
  117 Bend                     3    71    83               120.04918
  118 Bend                     3    71    94               117.77257
  119 Bend                     4     5     7               114.16972
  120 Bend                     4     5     8               121.70755
  121 Bend                     4     6     9               113.37711
  122 Bend                     4     6    10               125.12875
  123 Bend                     5     4     6               107.19178
  124 Bend                     5     7     9               101.50489
  125 Bend                     5     7    11               110.78445
  126 Bend                     5     7    12               110.68882
  127 Bend                     5     8    13               118.84422
  128 Bend                     5     8    14               119.17642
  129 Bend                     6     9     7               102.54811
  130 Bend                     6     9    15               109.87070
  131 Bend                     6     9    16               110.72141
  132 Bend                     6    10    17               118.16452
  133 Bend                     6    10    18               119.52854
  134 Bend                     7     5     8               123.86308
  135 Bend                     7     9    15               112.28025
  136 Bend                     7     9    16               113.07439
  137 Bend                     8    13    19               118.01248
  138 Bend                     8    13    20               121.85655
  139 Bend                     8    14    21               118.05650
  140 Bend                     8    14    22               121.80052
  141 Bend                     9     6    10               121.26612
  142 Bend                     9     7    11               112.84084
  143 Bend                     9     7    12               112.65293
  144 Bend                    10    17    23               117.99543
  145 Bend                    10    17    24               122.09248
  146 Bend                    10    18    25               117.72463
  147 Bend                    10    18    26               121.93622
  148 Bend                    11     7    12               108.28380
  149 Bend                    13     8    14               121.97551
  150 Bend                    13    19    27               120.88697
  151 Bend                    13    19    28               119.54187
  152 Bend                    13    20    29               110.48546
  153 Bend                    13    20    30               111.78161
  154 Bend                    13    20    31               107.78518
  155 Bend                    14    21    27               120.85455
  156 Bend                    14    21    32               119.56861
  157 Bend                    14    22    33               111.74831
  158 Bend                    14    22    34               110.53935
  159 Bend                    14    22    35               107.98300
  160 Bend                    15     9    16               108.26238
  161 Bend                    17    10    18               122.29202
  162 Bend                    17    23    36               120.71534
  163 Bend                    17    23    37               119.57879
  164 Bend                    17    24    38               110.97958
  165 Bend                    17    24    39               111.51630
  166 Bend                    17    24    40               107.94782
  167 Bend                    18    25    36               120.99233
  168 Bend                    18    25    41               119.49733
  169 Bend                    18    26    42               112.88174
  170 Bend                    18    26    43               110.02046
  171 Bend                    18    26    44               107.76618
  172 Bend                    19    13    20               120.12231
  173 Bend                    19    27    21               120.19734
  174 Bend                    19    27    45               119.88520
  175 Bend                    20    29    46               111.31613
  176 Bend                    20    29    47               111.00872
  177 Bend                    20    29    48               110.51161
  178 Bend                    20    30    49               110.91796
  179 Bend                    20    30    50               110.34634
  180 Bend                    20    30    51               111.30876
  181 Bend                    21    14    22               120.14249
  182 Bend                    21    27    45               119.91745
  183 Bend                    22    33    52               110.79863
  184 Bend                    22    33    53               111.44296
  185 Bend                    22    33    54               110.29849
  186 Bend                    22    34    55               111.51014
  187 Bend                    22    34    56               110.61544
  188 Bend                    22    34    57               110.68529
  189 Bend                    23    17    24               119.90684
  190 Bend                    23    36    25               120.25891
  191 Bend                    23    36    58               119.87684
  192 Bend                    24    38    59               111.68741
  193 Bend                    24    38    60               110.82972
  194 Bend                    24    38    61               110.52819
  195 Bend                    24    39    62               111.05316
  196 Bend                    24    39    63               110.39587
  197 Bend                    24    39    64               111.13616
  198 Bend                    25    18    26               120.28589
  199 Bend                    25    36    58               119.86403
  200 Bend                    26    42    65               110.59825
  201 Bend                    26    42    66               111.26576
  202 Bend                    26    42    67               109.75376
  203 Bend                    26    43    68               112.15727
  204 Bend                    26    43    69               110.55534
  205 Bend                    26    43    70               110.17636
  206 Bend                    27    19    28               119.57111
  207 Bend                    27    21    32               119.57284
  208 Bend                    29    20    30               111.26121
  209 Bend                    29    20    31               107.97256
  210 Bend                    30    20    31               107.36600
  211 Bend                    33    22    34               111.00451
  212 Bend                    33    22    35               107.03272
  213 Bend                    34    22    35               108.36353
  214 Bend                    36    23    37               119.70509
  215 Bend                    36    25    41               119.50878
  216 Bend                    38    24    39               111.00301
  217 Bend                    38    24    40               108.00338
  218 Bend                    39    24    40               107.20242
  219 Bend                    42    26    43               110.28729
  220 Bend                    42    26    44               107.30041
  221 Bend                    43    26    44               108.42208
  222 Bend                    46    29    47               107.63593
  223 Bend                    46    29    48               108.33828
  224 Bend                    47    29    48               107.89834
  225 Bend                    49    30    50               108.27522
  226 Bend                    49    30    51               108.12027
  227 Bend                    50    30    51               107.75262
  228 Bend                    52    33    53               108.20295
  229 Bend                    52    33    54               108.18920
  230 Bend                    53    33    54               107.78955
  231 Bend                    55    34    56               108.42719
  232 Bend                    55    34    57               107.54980
  233 Bend                    56    34    57               107.91940
  234 Bend                    59    38    60               107.49502
  235 Bend                    59    38    61               108.39354
  236 Bend                    60    38    61               107.76007
  237 Bend                    62    39    63               108.56838
  238 Bend                    62    39    64               107.81396
  239 Bend                    63    39    64               107.75457
  240 Bend                    65    42    66               108.38932
  241 Bend                    65    42    67               109.53417
  242 Bend                    66    42    67               107.22082
  243 Bend                    68    43    69               108.44292
  244 Bend                    68    43    70               107.43646
  245 Bend                    69    43    70               107.92563
  246 Bend                    71     1    77               115.75526
  247 Bend                    71    83    84               120.55902
  248 Bend                    71    83    85               120.83912
  249 Bend                    71    94    95               111.70108
  250 Bend                    71    94    96               110.22356
  251 Bend                    71    94    97               109.43809
  252 Bend                    72    73    76               120.23200
  253 Bend                    72    73    82               119.94662
  254 Bend                    72    75    74               120.17733
  255 Bend                    72    75    78               120.21595
  256 Bend                    73    72    75               119.53309
  257 Bend                    73    72    81               120.28362
  258 Bend                    73    76    77               120.46933
  259 Bend                    73    76    79               121.02911
  260 Bend                    74    75    78               119.60573
  261 Bend                    75    72    81               120.18225
  262 Bend                    75    78    77               120.66009
  263 Bend                    75    78    80               119.75666
  264 Bend                    76    73    82               119.82116
  265 Bend                    76    77    78               118.87970
  266 Bend                    77    76    79               118.50130
  267 Bend                    77    78    80               119.58292
  268 Bend                    83    71    94               112.31796
  269 Bend                    83    84    86               120.68621
  270 Bend                    83    84    87               119.21377
  271 Bend                    83    85    88               120.67762
  272 Bend                    83    85    89               119.26815
  273 Bend                    84    83    85               118.57882
  274 Bend                    84    86    90               120.44244
  275 Bend                    84    86    91               119.57338
  276 Bend                    85    88    90               120.31266
  277 Bend                    85    88    92               119.68430
  278 Bend                    86    84    87               120.09915
  279 Bend                    86    90    88               119.28335
  280 Bend                    86    90    93               120.23213
  281 Bend                    88    85    89               120.05422
  282 Bend                    88    90    93               120.48319
  283 Bend                    90    86    91               119.98324
  284 Bend                    90    88    92               119.99985
  285 Bend                    95    94    96               108.57490
  286 Bend                    95    94    97               107.54242
  287 Bend                    96    94    97               109.29501
  288 Torsion                  1     3     4     5        -171.04180
  289 Torsion                  1     3     4     6          17.57232
  290 Torsion                  1     3    71    83         118.53601
  291 Torsion                  1     3    71    94         -98.28803
  292 Torsion                  1    71     4     5        -168.58045
  293 Torsion                  1    71     4     6          21.87352
  294 Torsion                  4     3     1    71        -175.85347
  295 Torsion                  1    71    83    84         -80.36152
  296 Torsion                  1    71    83    85         101.40927
  297 Torsion                  1    71    94    95          77.07786
  298 Torsion                  1    71    94    96        -162.12649
  299 Torsion                  1    71    94    97         -41.89904
  300 Torsion                  1    77    76    73         178.42724
  301 Torsion                  1    77    76    79          -1.38922
  302 Torsion                  1    77    78    75        -178.65705
  303 Torsion                  1    77    78    80           1.55251
  304 Torsion                  2     1     3     4         -72.03296
  305 Torsion                  2     1     3    71         103.82051
  306 Torsion                  2     1    71     3        -108.75458
  307 Torsion                  2     1    71    83         142.77382
  308 Torsion                  2     1    71    94           3.30755
  309 Torsion                  2     1    77    76           5.21713
  310 Torsion                  2     1    77    78        -177.30110
  311 Torsion                  3     1    71    83        -108.47161
  312 Torsion                  3     1    71    94         112.06213
  313 Torsion                  3     1    77    76        -143.48921
  314 Torsion                  3     1    77    78          33.99256
  315 Torsion                  3     4     5     7        -176.43635
  316 Torsion                  3     4     5     8           9.20356
  317 Torsion                  3     4     6     9         166.95054
  318 Torsion                  3     4     6    10          -7.59639
  319 Torsion                  3    71     1    77         108.00835
  320 Torsion                  3    71    83    84        -156.92189
  321 Torsion                  3    71    83    85          24.84890
  322 Torsion                  3    71    94    95         145.47032
  323 Torsion                  3    71    94    96         -93.73402
  324 Torsion                  3    71    94    97          26.49343
  325 Torsion                  4     3     1    77          77.57342
  326 Torsion                  4     5     7     9           8.62113
  327 Torsion                  4     5     7    11         128.68471
  328 Torsion                  4     5     7    12        -111.18092
  329 Torsion                  4     5     8    13         -90.01630
  330 Torsion                  4     5     8    14          89.28435
  331 Torsion                  4     6     9     7          10.04842
  332 Torsion                  4     6     9    15        -109.51897
  333 Torsion                  4     6     9    16         130.94471
  334 Torsion                  4     6    10    17        -100.57402
  335 Torsion                  4     6    10    18          80.79877
  336 Torsion                  5     4    71    83         -51.33857
  337 Torsion                  5     4    71    94          93.10341
  338 Torsion                  4     5     3    71        -172.44249
  339 Torsion                  5     4     6     9          -5.02356
  340 Torsion                  5     4     6    10        -179.57048
  341 Torsion                  5     7     9     6         -10.28053
  342 Torsion                  5     7     9    15         107.59204
  343 Torsion                  5     7     9    16        -129.54380
  344 Torsion                  5     8    13    19         177.85888
  345 Torsion                  5     8    13    20          -3.21097
  346 Torsion                  5     8    14    21        -178.52623
  347 Torsion                  5     8    14    22           1.72976
  348 Torsion                  6     4    71    83         139.11541
  349 Torsion                  6     4    71    94         -76.44261
  350 Torsion                  4     6     3    71         174.19609
  351 Torsion                  6     4     5     7          -2.76518
  352 Torsion                  6     4     5     8        -177.12526
  353 Torsion                  6     9     7    11        -128.87929
  354 Torsion                  6     9     7    12         108.11931
  355 Torsion                  6    10    17    23         179.86541
  356 Torsion                  6    10    17    24          -0.96982
  357 Torsion                  6    10    18    25        -179.82312
  358 Torsion                  6    10    18    26           2.82550
  359 Torsion                  7     5     8    13          96.18241
  360 Torsion                  7     5     8    14         -84.51694
  361 Torsion                  7     9     6    10        -175.16855
  362 Torsion                  8     5     7     9        -177.15761
  363 Torsion                  8     5     7    11         -57.09403
  364 Torsion                  8     5     7    12          63.04034
  365 Torsion                  8    13    19    27           0.91893
  366 Torsion                  8    13    19    28        -179.15839
  367 Torsion                  8    13    20    29        -113.86118
  368 Torsion                  8    13    20    30         121.65660
  369 Torsion                  8    13    20    31           3.89861
  370 Torsion                  8    14    21    27           0.44124
  371 Torsion                  8    14    21    32         179.71085
  372 Torsion                  8    14    22    33        -123.75491
  373 Torsion                  8    14    22    34         112.08052
  374 Torsion                  8    14    22    35          -6.29998
  375 Torsion                  9     6    10    17          85.28327
  376 Torsion                  9     6    10    18         -93.34394
  377 Torsion                 10     6     9    15          65.26406
  378 Torsion                 10     6     9    16         -54.27226
  379 Torsion                 10    17    23    36           0.39553
  380 Torsion                 10    17    23    37        -179.28416
  381 Torsion                 10    17    24    38        -115.44235
  382 Torsion                 10    17    24    39         120.23926
  383 Torsion                 10    17    24    40           2.73192
  384 Torsion                 10    18    25    36          -0.52454
  385 Torsion                 10    18    25    41         179.01885
  386 Torsion                 10    18    26    42        -134.40210
  387 Torsion                 10    18    26    43         101.93346
  388 Torsion                 10    18    26    44         -16.09653
  389 Torsion                 11     7     9    15         -11.00671
  390 Torsion                 11     7     9    16         111.85744
  391 Torsion                 12     7     9    15        -134.00812
  392 Torsion                 12     7     9    16         -11.14397
  393 Torsion                 13     8    14    21           0.75162
  394 Torsion                 13     8    14    22        -178.99239
  395 Torsion                 13    19    27    21           0.22663
  396 Torsion                 13    19    27    45        -179.80750
  397 Torsion                 13    20    29    46          56.03607
  398 Torsion                 13    20    29    47         -63.84682
  399 Torsion                 13    20    29    48         176.47205
  400 Torsion                 13    20    30    49         -57.28299
  401 Torsion                 13    20    30    50        -177.26886
  402 Torsion                 13    20    30    51          63.14661
  403 Torsion                 14     8    13    19          -1.42129
  404 Torsion                 14     8    13    20         177.50886
  405 Torsion                 14    21    27    19          -0.92910
  406 Torsion                 14    21    27    45         179.10504
  407 Torsion                 14    22    33    52          56.54059
  408 Torsion                 14    22    33    53         -64.00306
  409 Torsion                 14    22    33    54         176.31064
  410 Torsion                 14    22    34    55         -55.98777
  411 Torsion                 14    22    34    56        -176.73607
  412 Torsion                 14    22    34    57          63.69843
  413 Torsion                 17    10    18    25           1.60857
  414 Torsion                 17    10    18    26        -175.74281
  415 Torsion                 17    23    36    25           0.63871
  416 Torsion                 17    23    36    58        -179.52914
  417 Torsion                 17    24    38    59          56.05053
  418 Torsion                 17    24    38    60         -63.78114
  419 Torsion                 17    24    38    61         176.81566
  420 Torsion                 17    24    39    62         -56.49444
  421 Torsion                 17    24    39    63        -176.96913
  422 Torsion                 17    24    39    64          63.52302
  423 Torsion                 18    10    17    23          -1.54762
  424 Torsion                 18    10    17    24         177.61714
  425 Torsion                 18    25    36    23          -0.57212
  426 Torsion                 18    25    36    58         179.59570
  427 Torsion                 18    26    42    65          51.96811
  428 Torsion                 18    26    42    66         -68.55714
  429 Torsion                 18    26    42    67         172.93267
  430 Torsion                 18    26    43    68         -55.66742
  431 Torsion                 18    26    43    69        -176.83308
  432 Torsion                 18    26    43    70          63.95820
  433 Torsion                 19    13    20    29          65.04684
  434 Torsion                 19    13    20    30         -59.43538
  435 Torsion                 19    13    20    31        -177.19336
  436 Torsion                 19    27    21    32         179.80132
  437 Torsion                 20    13    19    27        -178.03050
  438 Torsion                 20    13    19    28           1.89218
  439 Torsion                 21    14    22    33          56.50632
  440 Torsion                 21    14    22    34         -67.65825
  441 Torsion                 21    14    22    35         173.96125
  442 Torsion                 21    27    19    28        -179.69602
  443 Torsion                 22    14    21    27        -179.81034
  444 Torsion                 22    14    21    32          -0.54073
  445 Torsion                 23    17    24    38          63.70685
  446 Torsion                 23    17    24    39         -60.61153
  447 Torsion                 23    17    24    40        -178.11888
  448 Torsion                 23    36    25    41         179.88453
  449 Torsion                 24    17    23    36        -178.78817
  450 Torsion                 24    17    23    37           1.53215
  451 Torsion                 25    18    26    42          48.31305
  452 Torsion                 25    18    26    43         -75.35139
  453 Torsion                 25    18    26    44         166.61862
  454 Torsion                 25    36    23    37        -179.68200
  455 Torsion                 26    18    25    36         176.87251
  456 Torsion                 26    18    25    41          -3.58409
  457 Torsion                 28    19    27    45           0.26985
  458 Torsion                 29    20    30    49         178.66902
  459 Torsion                 29    20    30    50          58.68314
  460 Torsion                 29    20    30    51         -60.90139
  461 Torsion                 30    20    29    46        -179.18458
  462 Torsion                 30    20    29    47          60.93254
  463 Torsion                 30    20    29    48         -58.74859
  464 Torsion                 31    20    29    46         -61.60861
  465 Torsion                 31    20    29    47         178.50851
  466 Torsion                 31    20    29    48          58.82738
  467 Torsion                 31    20    30    49          60.72594
  468 Torsion                 31    20    30    50         -59.25993
  469 Torsion                 31    20    30    51        -178.84446
  470 Torsion                 32    21    27    45          -0.16454
  471 Torsion                 33    22    34    55         179.42210
  472 Torsion                 33    22    34    56          58.67380
  473 Torsion                 33    22    34    57         -60.89171
  474 Torsion                 34    22    33    52        -179.55608
  475 Torsion                 34    22    33    53          59.90026
  476 Torsion                 34    22    33    54         -59.78604
  477 Torsion                 35    22    33    52         -61.48435
  478 Torsion                 35    22    33    53         177.97200
  479 Torsion                 35    22    33    54          58.28570
  480 Torsion                 35    22    34    55          62.16040
  481 Torsion                 35    22    34    56         -58.58791
  482 Torsion                 35    22    34    57        -178.15341
  483 Torsion                 37    23    36    58           0.15015
  484 Torsion                 38    24    39    62         179.20035
  485 Torsion                 38    24    39    63          58.72566
  486 Torsion                 38    24    39    64         -60.78219
  487 Torsion                 39    24    38    59        -179.34012
  488 Torsion                 39    24    38    60          60.82821
  489 Torsion                 39    24    38    61         -58.57499
  490 Torsion                 40    24    38    59         -62.09006
  491 Torsion                 40    24    38    60         178.07827
  492 Torsion                 40    24    38    61          58.67507
  493 Torsion                 40    24    39    62          61.46200
  494 Torsion                 40    24    39    63         -59.01269
  495 Torsion                 40    24    39    64        -178.52054
  496 Torsion                 41    25    36    58           0.05236
  497 Torsion                 42    26    43    68         179.16971
  498 Torsion                 42    26    43    69          58.00404
  499 Torsion                 42    26    43    70         -61.20467
  500 Torsion                 43    26    42    65         175.48510
  501 Torsion                 43    26    42    66          54.95985
  502 Torsion                 43    26    42    67         -63.55033
  503 Torsion                 44    26    42    65         -66.60915
  504 Torsion                 44    26    42    66         172.86560
  505 Torsion                 44    26    42    67          54.35542
  506 Torsion                 44    26    43    68          61.95655
  507 Torsion                 44    26    43    69         -59.20911
  508 Torsion                 44    26    43    70        -178.41782
  509 Torsion                 71     1    77    76         146.15763
  510 Torsion                 71     1    77    78         -36.36060
  511 Torsion                 71     3     1    77        -106.57312
  512 Torsion                 71    83    84    86        -178.92808
  513 Torsion                 71    83    84    87           1.41145
  514 Torsion                 71    83    85    88         179.82050
  515 Torsion                 71    83    85    89          -0.14992
  516 Torsion                 72    73    76    77          -0.03809
  517 Torsion                 72    73    76    79         179.77368
  518 Torsion                 72    75    78    77           0.83794
  519 Torsion                 72    75    78    80        -179.37197
  520 Torsion                 73    72    75    74        -179.67770
  521 Torsion                 73    72    75    78          -0.04241
  522 Torsion                 73    76    77    78           0.81537
  523 Torsion                 74    75    72    81          -0.04685
  524 Torsion                 74    75    78    77        -179.52469
  525 Torsion                 74    75    78    80           0.26540
  526 Torsion                 75    72    73    76          -0.35335
  527 Torsion                 75    72    73    82         179.81418
  528 Torsion                 75    78    77    76          -1.21457
  529 Torsion                 76    73    72    81        -179.98382
  530 Torsion                 76    77    78    80         178.99498
  531 Torsion                 77     1    71    83          -0.46326
  532 Torsion                 77     1    71    94        -139.92952
  533 Torsion                 77    76    73    82         179.79459
  534 Torsion                 78    75    72    81         179.58843
  535 Torsion                 78    77    76    79        -179.00110
  536 Torsion                 79    76    73    82          -0.39364
  537 Torsion                 81    72    73    82           0.18372
  538 Torsion                  4     3    83    71        -176.89830
  539 Torsion                 83    71    94    95         -68.64174
  540 Torsion                 83    71    94    96          52.15392
  541 Torsion                 83    71    94    97         172.38137
  542 Torsion                 83    84    86    90          -0.45085
  543 Torsion                 83    84    86    91         179.90103
  544 Torsion                 83    85    88    90          -1.35395
  545 Torsion                 83    85    88    92         179.29624
  546 Torsion                 84    83    71    94          58.05585
  547 Torsion                 84    83    85    88           1.55689
  548 Torsion                 84    83    85    89        -178.41353
  549 Torsion                 84    86    90    88           0.67309
  550 Torsion                 84    86    90    93        -179.74434
  551 Torsion                 85    83    71    94        -120.17336
  552 Torsion                 85    83    84    86          -0.65944
  553 Torsion                 85    83    84    87         179.68010
  554 Torsion                 85    88    90    86           0.22231
  555 Torsion                 85    88    90    93        -179.35919
  556 Torsion                 86    90    88    92         179.57006
  557 Torsion                 87    84    86    90         179.20661
  558 Torsion                 87    84    86    91          -0.44151
  559 Torsion                 88    90    86    91        -179.68024
  560 Torsion                 89    85    88    90         178.61625
  561 Torsion                 89    85    88    92          -0.73356
  562 Torsion                 91    86    90    93          -0.09767
  563 Torsion                 92    88    90    93          -0.01144
  564 Torsion                  4     3    94    71         172.70366


            XYZ format geometry
            -------------------
    97
 geometry
 C                     1.58329750     0.47787817    -1.34862404
 O                     1.39350080     1.27374963    -2.26248009
 Ni                    0.07524523    -0.44085612    -0.71193001
 C                    -1.23576792     0.41746437     0.30343220
 N                    -2.17901485    -0.35932924     0.86841364
 N                    -1.58528632     1.68779905     0.52548466
 C                    -3.21809556     0.38245223     1.57900450
 C                    -2.07816114    -1.78220974     0.86688840
 C                    -2.89065495     1.82637667     1.17943963
 C                    -0.85269563     2.83251558     0.08084359
 H                    -4.21042156     0.06743816     1.25285179
 H                    -3.14254888     0.21633645     2.65743333
 C                    -2.63489814    -2.49745950    -0.19965098
 C                    -1.41425361    -2.42057426     1.92148185
 H                    -3.61799269     2.23622259     0.47392922
 H                    -2.82477338     2.50144767     2.03299190
 C                    -0.03363179     3.49052889     1.00268440
 C                    -0.99677668     3.27317709    -1.23827996
 C                    -2.48703535    -3.88096952    -0.20662049
 C                    -3.40110470    -1.80862326    -1.31166078
 C                    -1.30241825    -3.80571747     1.88078202
 C                    -0.83227682    -1.64373703     3.08598703
 C                     0.67918139     4.60126389     0.56591794
 C                     0.07841867     3.03989300     2.44666835
 C                    -0.26445371     4.38680591    -1.63151078
 C                    -1.95927847     2.61039255    -2.20490321
 C                    -1.82548336    -4.53012910     0.82160123
 H                    -2.89623618    -4.45767686    -1.02709851
 C                    -4.87483913    -2.22216310    -1.28278941
 C                    -2.77688333    -2.07664515    -2.68109550
 H                    -3.34968315    -0.73265751    -1.13511790
 H                    -0.78939798    -4.32441848     2.68172181
 C                     0.65981324    -1.92303311     3.26386261
 C                    -1.60421611    -1.94610965     4.37256933
 H                    -0.93435403    -0.57927815     2.86572056
 C                     0.57004985     5.04199690    -0.74167469
 H                     1.33088976     5.12377526     1.25599854
 C                    -0.46625754     4.10862466     3.39832824
 C                     1.51524440     2.66661450     2.80724264
 H                    -0.52903665     2.13979783     2.56653746
 H                    -0.34199114     4.74299428    -2.65081091
 C                    -1.33941641     2.35301911    -3.57807734
 C                    -3.22874271     3.45784565    -2.34524509
 H                    -2.23646586     1.64004523    -1.78655541
 H                    -1.71706099    -5.60710225     0.79817838
 H                    -5.32538220    -2.01786967    -0.30950222
 H                    -4.98568176    -3.29022562    -1.48101614
 H                    -5.43925213    -1.67955865    -2.04314156
 H                    -1.73265895    -1.75814776    -2.70263264
 H                    -3.31706146    -1.53176529    -3.45766905
 H                    -2.81331314    -3.13875990    -2.93285801
 H                     1.20708589    -1.69929964     2.34868808
 H                     0.84221011    -2.96802902     3.52363422
 H                     1.06810402    -1.30402074     4.06505739
 H                    -2.67012207    -1.73968963     4.25777077
 H                    -1.22340401    -1.34436683     5.19961414
 H                    -1.50016596    -2.99818198     4.64668947
 H                     1.13738608     5.90419066    -1.06944696
 H                    -1.49742543     4.37559428     3.15762859
 H                     0.13104621     5.02084248     3.34046906
 H                    -0.43407311     3.75434685     4.43069005
 H                     1.89880357     1.89610997     2.13932657
 H                     1.56592492     2.29440002     3.83323724
 H                     2.17718125     3.53209760     2.73389587
 H                    -0.39578419     1.81987556    -3.47839325
 H                    -1.15209105     3.28870850    -4.10991748
 H                    -2.02807881     1.76552475    -4.18983552
 H                    -3.70542123     3.64818824    -1.38155916
 H                    -3.95141799     2.96103574    -2.99601154
 H                    -2.98779647     4.42693251    -2.78837530
 N                     1.38523510    -1.17940321    -1.82606116
 C                     4.70200637     1.41399495     1.46316756
 C                     4.36622762     2.28988944     0.43952478
 H                     4.27306566    -0.47958403     2.38043782
 C                     4.02325987     0.20899710     1.58286795
 C                     3.36434619     1.95982673    -0.46183804
 C                     2.68443139     0.74613215    -0.35099996
 C                     3.01634142    -0.11689551     0.68664544
 H                     3.08973354     2.63431331    -1.26223175
 H                     2.48662397    -1.05107377     0.79269520
 H                     5.48364505     1.67087154     2.16728921
 H                     4.88969070     3.23371503     0.34164921
 C                     2.15886266    -2.29578597    -1.37916630
 C                     3.40902111    -2.55973780    -1.93562992
 C                     1.66543974    -3.16345773    -0.40594488
 C                     4.15168393    -3.65407264    -1.51995033
 H                     3.79974177    -1.89570313    -2.69582552
 C                     2.41848377    -4.24930746     0.02315602
 H                     0.68160819    -2.98312369     0.01638695
 C                     3.66446821    -4.50134317    -0.53344535
 H                     5.12019189    -3.84308396    -1.96567028
 H                     2.02389302    -4.90715477     0.78902457
 H                     4.24920682    -5.35273469    -0.20843405
 C                     1.10636426    -1.23523727    -3.26527865
 H                     2.01247834    -1.08658999    -3.85869635
 H                     0.67242648    -2.20334635    -3.52883460
 H                     0.40914324    -0.44574101    -3.52915246

 ==============================================================================
                                internuclear distances
 ------------------------------------------------------------------------------
       center one      |      center two      | atomic units |  angstroms
 ------------------------------------------------------------------------------
    2 O                |   1 C                |     2.31795  |     1.22661
    3 Ni               |   1 C                |     3.54729  |     1.87715
    4 C                |   3 Ni               |     3.52849  |     1.86720
    5 N                |   4 C                |     2.54400  |     1.34623
    6 N                |   4 C                |     2.52490  |     1.33612
    7 C                |   5 N                |     2.76111  |     1.46112
    8 C                |   5 N                |     2.69560  |     1.42645
    9 C                |   6 N                |     2.77143  |     1.46658
    9 C                |   7 C                |     2.89800  |     1.53355
   10 C                |   6 N                |     2.70222  |     1.42995
   11 H                |   7 C                |     2.06173  |     1.09102
   12 H                |   7 C                |     2.06691  |     1.09376
   13 C                |   8 C                |     2.64497  |     1.39966
   14 C                |   8 C                |     2.64592  |     1.40016
   15 H                |   9 C                |     2.06555  |     1.09304
   16 H                |   9 C                |     2.06025  |     1.09024
   17 C                |  10 C                |     2.64132  |     1.39773
   18 C                |  10 C                |     2.64226  |     1.39822
   19 C                |  13 C                |     2.62938  |     1.39141
   20 C                |  13 C                |     2.86475  |     1.51596
   21 C                |  14 C                |     2.62718  |     1.39025
   22 C                |  14 C                |     2.86482  |     1.51600
   23 C                |  17 C                |     2.62706  |     1.39018
   24 C                |  17 C                |     2.86636  |     1.51681
   25 C                |  18 C                |     2.62604  |     1.38964
   26 C                |  18 C                |     2.86594  |     1.51659
   27 C                |  19 C                |     2.61596  |     1.38430
   27 C                |  21 C                |     2.61864  |     1.38572
   28 H                |  19 C                |     2.04686  |     1.08315
   29 C                |  20 C                |     2.89304  |     1.53093
   30 C                |  20 C                |     2.88877  |     1.52867
   31 H                |  20 C                |     2.06276  |     1.09156
   32 H                |  21 C                |     2.04732  |     1.08340
   33 C                |  22 C                |     2.88824  |     1.52839
   34 C                |  22 C                |     2.89234  |     1.53056
   35 H                |  22 C                |     2.06319  |     1.09179
   36 C                |  23 C                |     2.61572  |     1.38418
   36 C                |  25 C                |     2.61676  |     1.38473
   37 H                |  23 C                |     2.04750  |     1.08349
   38 C                |  24 C                |     2.89351  |     1.53118
   39 C                |  24 C                |     2.88690  |     1.52768
   40 H                |  24 C                |     2.06451  |     1.09249
   41 H                |  25 C                |     2.04567  |     1.08252
   42 C                |  26 C                |     2.88830  |     1.52842
   43 C                |  26 C                |     2.89653  |     1.53278
   44 H                |  26 C                |     2.06441  |     1.09244
   45 H                |  27 C                |     2.04595  |     1.08267
   46 H                |  29 C                |     2.06319  |     1.09179
   47 H                |  29 C                |     2.06347  |     1.09194
   48 H                |  29 C                |     2.06241  |     1.09138
   49 H                |  30 C                |     2.06345  |     1.09193
   50 H                |  30 C                |     2.06297  |     1.09167
   51 H                |  30 C                |     2.06387  |     1.09215
   52 H                |  33 C                |     2.05894  |     1.08955
   53 H                |  33 C                |     2.06384  |     1.09214
   54 H                |  33 C                |     2.06300  |     1.09169
   55 H                |  34 C                |     2.06313  |     1.09176
   56 H                |  34 C                |     2.06241  |     1.09138
   57 H                |  34 C                |     2.06389  |     1.09217
   58 H                |  36 C                |     2.04639  |     1.08290
   59 H                |  38 C                |     2.06363  |     1.09202
   60 H                |  38 C                |     2.06340  |     1.09191
   61 H                |  38 C                |     2.06346  |     1.09193
   62 H                |  39 C                |     2.05877  |     1.08945
   63 H                |  39 C                |     2.06472  |     1.09260
   64 H                |  39 C                |     2.06370  |     1.09206
   65 H                |  42 C                |     2.05678  |     1.08840
   66 H                |  42 C                |     2.06444  |     1.09246
   67 H                |  42 C                |     2.06461  |     1.09254
   68 H                |  43 C                |     2.06330  |     1.09185
   69 H                |  43 C                |     2.06368  |     1.09205
   70 H                |  43 C                |     2.06452  |     1.09250
   71 N                |   3 Ni               |     3.53677  |     1.87158
   73 C                |  72 C                |     2.62378  |     1.38845
   75 C                |  72 C                |     2.62328  |     1.38818
   75 C                |  74 H                |     2.04638  |     1.08290
   76 C                |  73 C                |     2.62200  |     1.38750
   77 C                |   1 C                |     2.85324  |     1.50987
   77 C                |  76 C                |     2.63725  |     1.39557
   78 C                |  75 C                |     2.62073  |     1.38683
   78 C                |  77 C                |     2.62644  |     1.38985
   79 H                |  76 C                |     2.04490  |     1.08212
   80 H                |  78 C                |     2.03927  |     1.07914
   81 H                |  72 C                |     2.04644  |     1.08293
   82 H                |  73 C                |     2.04789  |     1.08370
   83 C                |  71 N                |     2.70206  |     1.42987
   84 C                |  83 C                |     2.63359  |     1.39363
   85 C                |  83 C                |     2.63444  |     1.39409
   86 C                |  84 C                |     2.61978  |     1.38633
   87 H                |  84 C                |     2.04536  |     1.08236
   88 C                |  85 C                |     2.62548  |     1.38934
   89 H                |  85 C                |     2.05173  |     1.08573
   90 C                |  86 C                |     2.62423  |     1.38868
   90 C                |  88 C                |     2.62244  |     1.38773
   91 H                |  86 C                |     2.04615  |     1.08277
   92 H                |  88 C                |     2.04843  |     1.08398
   93 H                |  90 C                |     2.04616  |     1.08278
   94 C                |  71 N                |     2.77232  |     1.46705
   95 H                |  94 C                |     2.06602  |     1.09329
   96 H                |  94 C                |     2.06577  |     1.09316
   97 H                |  94 C                |     2.05194  |     1.08584
 ------------------------------------------------------------------------------
                         number of included internuclear distances:        101
 ==============================================================================



 ==============================================================================
                                 internuclear angles
 ------------------------------------------------------------------------------
        center 1       |       center 2       |       center 3       |  degrees
 ------------------------------------------------------------------------------
    2 O                |   1 C                |   3 Ni               |   116.48
    2 O                |   1 C                |  77 C                |   119.33
    3 Ni               |   1 C                |  77 C                |   116.66
    1 C                |   3 Ni               |   4 C                |   121.57
    1 C                |   3 Ni               |  71 N                |    55.17
    4 C                |   3 Ni               |  71 N                |   175.24
    3 Ni               |   4 C                |   5 N                |   117.06
    3 Ni               |   4 C                |   6 N                |   135.32
    5 N                |   4 C                |   6 N                |   107.19
    4 C                |   5 N                |   7 C                |   114.17
    4 C                |   5 N                |   8 C                |   121.71
    7 C                |   5 N                |   8 C                |   123.86
    4 C                |   6 N                |   9 C                |   113.38
    4 C                |   6 N                |  10 C                |   125.13
    9 C                |   6 N                |  10 C                |   121.27
    5 N                |   7 C                |   9 C                |   101.50
    5 N                |   7 C                |  11 H                |   110.78
    5 N                |   7 C                |  12 H                |   110.69
    9 C                |   7 C                |  11 H                |   112.84
    9 C                |   7 C                |  12 H                |   112.65
   11 H                |   7 C                |  12 H                |   108.28
    5 N                |   8 C                |  13 C                |   118.84
    5 N                |   8 C                |  14 C                |   119.18
   13 C                |   8 C                |  14 C                |   121.98
    6 N                |   9 C                |   7 C                |   102.55
    6 N                |   9 C                |  15 H                |   109.87
    6 N                |   9 C                |  16 H                |   110.72
    7 C                |   9 C                |  15 H                |   112.28
    7 C                |   9 C                |  16 H                |   113.07
   15 H                |   9 C                |  16 H                |   108.26
    6 N                |  10 C                |  17 C                |   118.16
    6 N                |  10 C                |  18 C                |   119.53
   17 C                |  10 C                |  18 C                |   122.29
    8 C                |  13 C                |  19 C                |   118.01
    8 C                |  13 C                |  20 C                |   121.86
   19 C                |  13 C                |  20 C                |   120.12
    8 C                |  14 C                |  21 C                |   118.06
    8 C                |  14 C                |  22 C                |   121.80
   21 C                |  14 C                |  22 C                |   120.14
   10 C                |  17 C                |  23 C                |   118.00
   10 C                |  17 C                |  24 C                |   122.09
   23 C                |  17 C                |  24 C                |   119.91
   10 C                |  18 C                |  25 C                |   117.72
   10 C                |  18 C                |  26 C                |   121.94
   25 C                |  18 C                |  26 C                |   120.29
   13 C                |  19 C                |  27 C                |   120.89
   13 C                |  19 C                |  28 H                |   119.54
   27 C                |  19 C                |  28 H                |   119.57
   13 C                |  20 C                |  29 C                |   110.49
   13 C                |  20 C                |  30 C                |   111.78
   13 C                |  20 C                |  31 H                |   107.79
   29 C                |  20 C                |  30 C                |   111.26
   29 C                |  20 C                |  31 H                |   107.97
   30 C                |  20 C                |  31 H                |   107.37
   14 C                |  21 C                |  27 C                |   120.85
   14 C                |  21 C                |  32 H                |   119.57
   27 C                |  21 C                |  32 H                |   119.57
   14 C                |  22 C                |  33 C                |   111.75
   14 C                |  22 C                |  34 C                |   110.54
   14 C                |  22 C                |  35 H                |   107.98
   33 C                |  22 C                |  34 C                |   111.00
   33 C                |  22 C                |  35 H                |   107.03
   34 C                |  22 C                |  35 H                |   108.36
   17 C                |  23 C                |  36 C                |   120.72
   17 C                |  23 C                |  37 H                |   119.58
   36 C                |  23 C                |  37 H                |   119.71
   17 C                |  24 C                |  38 C                |   110.98
   17 C                |  24 C                |  39 C                |   111.52
   17 C                |  24 C                |  40 H                |   107.95
   38 C                |  24 C                |  39 C                |   111.00
   38 C                |  24 C                |  40 H                |   108.00
   39 C                |  24 C                |  40 H                |   107.20
   18 C                |  25 C                |  36 C                |   120.99
   18 C                |  25 C                |  41 H                |   119.50
   36 C                |  25 C                |  41 H                |   119.51
   18 C                |  26 C                |  42 C                |   112.88
   18 C                |  26 C                |  43 C                |   110.02
   18 C                |  26 C                |  44 H                |   107.77
   42 C                |  26 C                |  43 C                |   110.29
   42 C                |  26 C                |  44 H                |   107.30
   43 C                |  26 C                |  44 H                |   108.42
   19 C                |  27 C                |  21 C                |   120.20
   19 C                |  27 C                |  45 H                |   119.89
   21 C                |  27 C                |  45 H                |   119.92
   20 C                |  29 C                |  46 H                |   111.32
   20 C                |  29 C                |  47 H                |   111.01
   20 C                |  29 C                |  48 H                |   110.51
   46 H                |  29 C                |  47 H                |   107.64
   46 H                |  29 C                |  48 H                |   108.34
   47 H                |  29 C                |  48 H                |   107.90
   20 C                |  30 C                |  49 H                |   110.92
   20 C                |  30 C                |  50 H                |   110.35
   20 C                |  30 C                |  51 H                |   111.31
   49 H                |  30 C                |  50 H                |   108.28
   49 H                |  30 C                |  51 H                |   108.12
   50 H                |  30 C                |  51 H                |   107.75
   22 C                |  33 C                |  52 H                |   110.80
   22 C                |  33 C                |  53 H                |   111.44
   22 C                |  33 C                |  54 H                |   110.30
   52 H                |  33 C                |  53 H                |   108.20
   52 H                |  33 C                |  54 H                |   108.19
   53 H                |  33 C                |  54 H                |   107.79
   22 C                |  34 C                |  55 H                |   111.51
   22 C                |  34 C                |  56 H                |   110.62
   22 C                |  34 C                |  57 H                |   110.69
   55 H                |  34 C                |  56 H                |   108.43
   55 H                |  34 C                |  57 H                |   107.55
   56 H                |  34 C                |  57 H                |   107.92
   23 C                |  36 C                |  25 C                |   120.26
   23 C                |  36 C                |  58 H                |   119.88
   25 C                |  36 C                |  58 H                |   119.86
   24 C                |  38 C                |  59 H                |   111.69
   24 C                |  38 C                |  60 H                |   110.83
   24 C                |  38 C                |  61 H                |   110.53
   59 H                |  38 C                |  60 H                |   107.50
   59 H                |  38 C                |  61 H                |   108.39
   60 H                |  38 C                |  61 H                |   107.76
   24 C                |  39 C                |  62 H                |   111.05
   24 C                |  39 C                |  63 H                |   110.40
   24 C                |  39 C                |  64 H                |   111.14
   62 H                |  39 C                |  63 H                |   108.57
   62 H                |  39 C                |  64 H                |   107.81
   63 H                |  39 C                |  64 H                |   107.75
   26 C                |  42 C                |  65 H                |   110.60
   26 C                |  42 C                |  66 H                |   111.27
   26 C                |  42 C                |  67 H                |   109.75
   65 H                |  42 C                |  66 H                |   108.39
   65 H                |  42 C                |  67 H                |   109.53
   66 H                |  42 C                |  67 H                |   107.22
   26 C                |  43 C                |  68 H                |   112.16
   26 C                |  43 C                |  69 H                |   110.56
   26 C                |  43 C                |  70 H                |   110.18
   68 H                |  43 C                |  69 H                |   108.44
   68 H                |  43 C                |  70 H                |   107.44
   69 H                |  43 C                |  70 H                |   107.93
    3 Ni               |  71 N                |  83 C                |   120.05
    3 Ni               |  71 N                |  94 C                |   117.77
   83 C                |  71 N                |  94 C                |   112.32
   73 C                |  72 C                |  75 C                |   119.53
   73 C                |  72 C                |  81 H                |   120.28
   75 C                |  72 C                |  81 H                |   120.18
   72 C                |  73 C                |  76 C                |   120.23
   72 C                |  73 C                |  82 H                |   119.95
   76 C                |  73 C                |  82 H                |   119.82
   72 C                |  75 C                |  74 H                |   120.18
   72 C                |  75 C                |  78 C                |   120.22
   74 H                |  75 C                |  78 C                |   119.61
   73 C                |  76 C                |  77 C                |   120.47
   73 C                |  76 C                |  79 H                |   121.03
   77 C                |  76 C                |  79 H                |   118.50
    1 C                |  77 C                |  76 C                |   117.22
    1 C                |  77 C                |  78 C                |   123.86
   76 C                |  77 C                |  78 C                |   118.88
   75 C                |  78 C                |  77 C                |   120.66
   75 C                |  78 C                |  80 H                |   119.76
   77 C                |  78 C                |  80 H                |   119.58
   71 N                |  83 C                |  84 C                |   120.56
   71 N                |  83 C                |  85 C                |   120.84
   84 C                |  83 C                |  85 C                |   118.58
   83 C                |  84 C                |  86 C                |   120.69
   83 C                |  84 C                |  87 H                |   119.21
   86 C                |  84 C                |  87 H                |   120.10
   83 C                |  85 C                |  88 C                |   120.68
   83 C                |  85 C                |  89 H                |   119.27
   88 C                |  85 C                |  89 H                |   120.05
   84 C                |  86 C                |  90 C                |   120.44
   84 C                |  86 C                |  91 H                |   119.57
   90 C                |  86 C                |  91 H                |   119.98
   85 C                |  88 C                |  90 C                |   120.31
   85 C                |  88 C                |  92 H                |   119.68
   90 C                |  88 C                |  92 H                |   120.00
   86 C                |  90 C                |  88 C                |   119.28
   86 C                |  90 C                |  93 H                |   120.23
   88 C                |  90 C                |  93 H                |   120.48
   71 N                |  94 C                |  95 H                |   111.70
   71 N                |  94 C                |  96 H                |   110.22
   71 N                |  94 C                |  97 H                |   109.44
   95 H                |  94 C                |  96 H                |   108.57
   95 H                |  94 C                |  97 H                |   107.54
[...]
  ----- ------------  ---------------      ----- ------------  ---------------
   434     12.319656  76 C  s               414    -11.987368  73 C  s         
   452     12.022539  78 C  s               425    -11.804149  75 C  s         
   405     11.207867  72 C  s               478    -11.210548  84 C  s         
   487    -11.058525  85 C  s               443    -10.268377  77 C  s         
   469     10.186917  83 C  s               496     10.025379  86 C  s         

 Vector  526  Occ=0.000000D+00  E= 1.767189D+00
              MO Center= -5.8D-01,  1.3D+00,  9.5D-02, r^2= 1.5D+01
   Bfn.  Coefficient  Atom+Function         Bfn.  Coefficient  Atom+Function  
  ----- ------------  ---------------      ----- ------------  ---------------
   202    -13.230918  23 C  s               220    -13.164387  25 C  s         
   157     12.490843  18 C  s               291     11.435893  36 C  s         
   113    -11.351391  10 C  s               148     11.389690  17 C  s         
   118    -11.103157  10 C  py              154    -10.409143  17 C  pz        
   100     -9.818993   8 C  py              184      8.676255  21 C  s         

 Vector  527  Occ=0.000000D+00  E= 1.776290D+00
              MO Center=  9.7D-01, -1.6D-02, -2.4D-01, r^2= 1.4D+01
   Bfn.  Coefficient  Atom+Function         Bfn.  Coefficient  Atom+Function  
  ----- ------------  ---------------      ----- ------------  ---------------
   434      9.786841  76 C  s               425     -8.723345  75 C  s         
   414     -8.457543  73 C  s               452      8.080024  78 C  s         
   405      7.823487  72 C  s               220     -6.975615  25 C  s         
   443     -6.446437  77 C  s               202     -6.341965  23 C  s         
   113     -6.142069  10 C  s               148      6.040338  17 C  s         

 Vector  528  Occ=0.000000D+00  E= 1.847373D+00
              MO Center=  2.5D-01, -4.3D-01, -9.8D-01, r^2= 9.6D+00
   Bfn.  Coefficient  Atom+Function         Bfn.  Coefficient  Atom+Function  
  ----- ------------  ---------------      ----- ------------  ---------------
    22     23.633600   3 Ni s                23     -9.086389   3 Ni s         
   166      6.336331  19 C  s                56     -5.894441   3 Ni dzz       
    54     -5.401316   3 Ni dyy              51     -5.312218   3 Ni dxx       
   184      4.755270  21 C  s               238     -4.776945  27 C  s         
   135     -4.445809  14 C  s                95      4.215898   8 C  s         

 Vector  529  Occ=0.000000D+00  E= 1.888743D+00
              MO Center= -1.6D+00,  5.3D-01,  5.3D-01, r^2= 5.3D+00
   Bfn.  Coefficient  Atom+Function         Bfn.  Coefficient  Atom+Function  
  ----- ------------  ---------------      ----- ------------  ---------------
    22      5.953101   3 Ni s               100     -5.150533   8 C  py        
    73     -4.470711   5 N  py               86      4.208867   7 C  s         
   104     -4.142725   9 C  s                23     -3.482285   3 Ni s         
    81     -3.466079   6 N  px               68      3.386172   5 N  s         
   118     -3.035688  10 C  py              175     -2.885126  20 C  s         

 Vector  530  Occ=0.000000D+00  E= 1.949248D+00
              MO Center=  1.1D+00,  5.7D-01, -1.6D+00, r^2= 5.6D+00
   Bfn.  Coefficient  Atom+Function         Bfn.  Coefficient  Atom+Function  
  ----- ------------  ---------------      ----- ------------  ---------------
    22      8.687605   3 Ni s                12     -7.194615   2 O  s         
    23     -5.005444   3 Ni s               113     -4.962269  10 C  s         
     9     -4.383899   1 C  pz              157      4.169326  18 C  s         
   148      3.912408  17 C  s                 3      3.757278   1 C  s         
   126     -3.424963  13 C  s               166      3.228938  19 C  s         

 Vector  531  Occ=0.000000D+00  E= 2.860210D+00
              MO Center=  4.2D-02, -4.5D-01, -8.3D-01, r^2= 2.4D+00
   Bfn.  Coefficient  Atom+Function         Bfn.  Coefficient  Atom+Function  
  ----- ------------  ---------------      ----- ------------  ---------------
    22      8.436189   3 Ni s                21      5.803488   3 Ni s         
    23     -4.989544   3 Ni s                20     -3.007622   3 Ni s         
    45     -2.697810   3 Ni dxx              48     -2.694321   3 Ni dyy       
    50     -2.693160   3 Ni dzz             166      1.668408  19 C  s         
   487      1.538457  85 C  s               396     -1.500729  71 N  s         

 Vector  532  Occ=0.000000D+00  E= 3.100453D+00
              MO Center=  2.2D-01, -4.5D-01, -6.0D-01, r^2= 1.2D+00
   Bfn.  Coefficient  Atom+Function         Bfn.  Coefficient  Atom+Function  
  ----- ------------  ---------------      ----- ------------  ---------------
    22      3.654402   3 Ni s                21      1.244011   3 Ni s         
     9      1.216475   1 C  pz               23     -1.213318   3 Ni s         
    12      1.162607   2 O  s                32     -1.139545   3 Ni pz        
   396     -1.138019  71 N  s                 7      1.118169   1 C  px        
   447      1.040994  77 C  px               29      1.012226   3 Ni pz        

 Vector  533  Occ=0.000000D+00  E= 3.317702D+00
              MO Center=  1.6D-01, -3.9D-01, -7.3D-01, r^2= 1.3D+00
   Bfn.  Coefficient  Atom+Function         Bfn.  Coefficient  Atom+Function  
  ----- ------------  ---------------      ----- ------------  ---------------
     3      2.934124   1 C  s               448      1.951957  77 C  py        
     8     -1.855007   1 C  py              396     -1.860692  71 N  s         
   434     -1.800337  76 C  s               452      1.496759  78 C  s         
    31     -1.462473   3 Ni py               28      1.221042   3 Ni py        
    77      1.170785   6 N  s               447      1.056043  77 C  px        

 Vector  534  Occ=0.000000D+00  E= 3.467596D+00
              MO Center=  1.4D-01, -4.1D-01, -7.2D-01, r^2= 1.4D+00
   Bfn.  Coefficient  Atom+Function         Bfn.  Coefficient  Atom+Function  
  ----- ------------  ---------------      ----- ------------  ---------------
     3      2.724676   1 C  s               434     -1.936453  76 C  s         
   448      1.868580  77 C  py                8     -1.456112   1 C  py        
   478     -1.438024  84 C  s                30     -1.392818   3 Ni px        
    64      1.388855   4 C  py               33     -1.352435   3 Ni px        
   473      1.342605  83 C  px               27      1.114018   3 Ni px        

 Vector  535  Occ=0.000000D+00  E= 4.762798D+00
              MO Center=  7.6D-02, -4.4D-01, -7.0D-01, r^2= 6.0D-01
   Bfn.  Coefficient  Atom+Function         Bfn.  Coefficient  Atom+Function  
  ----- ------------  ---------------      ----- ------------  ---------------
    49      1.653858   3 Ni dyz              43     -1.342621   3 Ni dyz       
    46      1.183475   3 Ni dxy              40     -0.962214   3 Ni dxy       
    55     -0.837613   3 Ni dyz               3      0.796812   1 C  s         
    52     -0.563392   3 Ni dxy              22     -0.543783   3 Ni s         
     9      0.539274   1 C  pz               95     -0.482376   8 C  s         

 Vector  536  Occ=0.000000D+00  E= 4.806488D+00
              MO Center=  7.4D-02, -4.5D-01, -7.1D-01, r^2= 6.4D-01
   Bfn.  Coefficient  Atom+Function         Bfn.  Coefficient  Atom+Function  
  ----- ------------  ---------------      ----- ------------  ---------------
    95      1.141623   8 C  s                48      1.017931   3 Ni dyy       
    47     -0.988489   3 Ni dxz              12     -0.811821   2 O  s         
    41      0.794158   3 Ni dxz             135     -0.787592  14 C  s         
    42     -0.756982   3 Ni dyy              45     -0.748763   3 Ni dxx       
    64      0.714743   4 C  py                3      0.689766   1 C  s         

 Vector  537  Occ=0.000000D+00  E= 4.831898D+00
              MO Center=  6.9D-02, -4.5D-01, -7.1D-01, r^2= 6.4D-01
   Bfn.  Coefficient  Atom+Function         Bfn.  Coefficient  Atom+Function  
  ----- ------------  ---------------      ----- ------------  ---------------
    22      1.814049   3 Ni s                 3     -1.170104   1 C  s         
    56     -1.128706   3 Ni dzz              50      0.987949   3 Ni dzz       
    44     -0.946234   3 Ni dzz              45     -0.906686   3 Ni dxx       
    77      0.774764   6 N  s                64     -0.742039   4 C  py        
    33      0.737523   3 Ni px               48     -0.700998   3 Ni dyy       

 Vector  538  Occ=0.000000D+00  E= 4.952507D+00
              MO Center=  5.4D-02, -4.5D-01, -7.0D-01, r^2= 7.0D-01
   Bfn.  Coefficient  Atom+Function         Bfn.  Coefficient  Atom+Function  
  ----- ------------  ---------------      ----- ------------  ---------------
    22      2.110375   3 Ni s                47      1.254689   3 Ni dxz       
    46     -1.229613   3 Ni dxy              95     -1.032012   8 C  s         
    52      0.968223   3 Ni dxy              53     -0.958099   3 Ni dxz       
    41     -0.952917   3 Ni dxz              40      0.936497   3 Ni dxy       
    64      0.889531   4 C  py               68      0.863617   5 N  s         

 Vector  539  Occ=0.000000D+00  E= 5.107614D+00
              MO Center=  8.0D-02, -4.6D-01, -7.2D-01, r^2= 7.1D-01
   Bfn.  Coefficient  Atom+Function         Bfn.  Coefficient  Atom+Function  
  ----- ------------  ---------------      ----- ------------  ---------------
    22      2.831070   3 Ni s                53     -1.541482   3 Ni dxz       
    47      1.486229   3 Ni dxz              52     -1.391928   3 Ni dxy       
    59     -1.290762   4 C  s                46      1.280107   3 Ni dxy       
    33     -1.251818   3 Ni px                3      1.200372   1 C  s         
   396     -1.182626  71 N  s                55      1.105051   3 Ni dyz       

 Vector  540  Occ=0.000000D+00  E= 1.022664D+01
              MO Center=  8.2D-02, -4.5D-01, -7.1D-01, r^2= 6.1D-01
   Bfn.  Coefficient  Atom+Function         Bfn.  Coefficient  Atom+Function  
  ----- ------------  ---------------      ----- ------------  ---------------
    21     27.634861   3 Ni s                20    -17.413880   3 Ni s         
    45     -7.522128   3 Ni dxx              48     -7.475915   3 Ni dyy       
    50     -7.461502   3 Ni dzz              22      3.890674   3 Ni s         
    23     -2.071087   3 Ni s                19      1.506404   3 Ni s         
    56     -0.614146   3 Ni dzz              54     -0.592487   3 Ni dyy       

 Vector  541  Occ=0.000000D+00  E= 4.993018D+01
              MO Center=  7.6D-02, -4.4D-01, -7.1D-01, r^2= 1.1D-01
   Bfn.  Coefficient  Atom+Function         Bfn.  Coefficient  Atom+Function  
  ----- ------------  ---------------      ----- ------------  ---------------
    20     21.379725   3 Ni s                21    -20.656436   3 Ni s         
    45      5.139247   3 Ni dxx              48      5.130524   3 Ni dyy       
    50      5.125937   3 Ni dzz              19     -4.349361   3 Ni s         
    39     -2.734670   3 Ni dxx              42     -2.731973   3 Ni dyy       
    44     -2.730357   3 Ni dzz              22     -1.819072   3 Ni s         

 Vector  542  Occ=0.000000D+00  E= 1.174323D+02
              MO Center=  7.6D-02, -4.4D-01, -7.1D-01, r^2= 2.9D-02
   Bfn.  Coefficient  Atom+Function         Bfn.  Coefficient  Atom+Function  
  ----- ------------  ---------------      ----- ------------  ---------------
    26      0.883759   3 Ni pz               24      0.501241   3 Ni px        
    29     -0.334127   3 Ni pz               25     -0.318739   3 Ni py        
    27     -0.189441   3 Ni px               32      0.172613   3 Ni pz        
    28      0.120564   3 Ni py               22     -0.118672   3 Ni s         
    30      0.097963   3 Ni px               33     -0.073252   3 Ni px        

 Vector  543  Occ=0.000000D+00  E= 1.175787D+02
              MO Center=  7.6D-02, -4.4D-01, -7.1D-01, r^2= 3.0D-02
   Bfn.  Coefficient  Atom+Function         Bfn.  Coefficient  Atom+Function  
  ----- ------------  ---------------      ----- ------------  ---------------
    25      1.016497   3 Ni py               28     -0.391841   3 Ni py        
    26      0.289685   3 Ni pz                3     -0.239614   1 C  s         
    31      0.215140   3 Ni py              448     -0.168774  77 C  py        
     8      0.164530   1 C  py              434      0.153355  76 C  s         
   396      0.136839  71 N  s                24      0.135602   3 Ni px        

 Vector  544  Occ=0.000000D+00  E= 1.176622D+02
              MO Center=  7.6D-02, -4.4D-01, -7.1D-01, r^2= 3.1D-02
   Bfn.  Coefficient  Atom+Function         Bfn.  Coefficient  Atom+Function  
  ----- ------------  ---------------      ----- ------------  ---------------
    24      0.930827   3 Ni px               26     -0.519343   3 Ni pz        
    27     -0.363510   3 Ni px                3     -0.212379   1 C  s         
    30      0.207762   3 Ni px               29      0.202820   3 Ni pz        
   434      0.173690  76 C  s               448     -0.171670  77 C  py        
     8      0.135901   1 C  py               64     -0.118970   4 C  py        

 Vector  545  Occ=0.000000D+00  E= 6.766849D+02
              MO Center=  7.5D-02, -4.4D-01, -7.1D-01, r^2= 2.3D-02
   Bfn.  Coefficient  Atom+Function         Bfn.  Coefficient  Atom+Function  
  ----- ------------  ---------------      ----- ------------  ---------------
    20     28.887066   3 Ni s                21    -15.359759   3 Ni s         
    39     -7.285495   3 Ni dxx              42     -7.286645   3 Ni dyy       
    44     -7.286714   3 Ni dzz              19     -4.276943   3 Ni s         
    45      3.413030   3 Ni dxx              48      3.417030   3 Ni dyy       
    50      3.417208   3 Ni dzz              51      0.135016   3 Ni dxx       


 center of mass
 --------------
 x =   0.06065903 y =  -0.01803343 z =  -0.03281351

 moments of inertia (a.u.)
 ------------------
       24501.192348908084           0.000000000005          -0.000000000003
           0.000000000005       21219.592854413211          -0.000000000000
          -0.000000000003          -0.000000000000       29410.185765816972

     Multipole analysis of the density
     ---------------------------------

     L   x y z        total         alpha         beta         nuclear
     -   - - -        -----         -----         ----         -------
     0   0 0 0      0.000000   -172.000000   -172.000000    344.000000

     1   1 0 0     -1.764041     -0.171056     -0.171056     -1.421929
     1   0 1 0     -0.540168     -4.435570     -4.435570      8.330973
     1   0 0 1      1.505824     -5.973851     -5.973851     13.453526

     2   2 0 0   -203.191257  -3734.079197  -3734.079197   7264.967136
     2   1 1 0     -0.405468     -2.337851     -2.337851      4.270234
     2   1 0 1      2.347526    -47.247589    -47.247589     96.842704
     2   0 2 0   -203.889592  -4609.616581  -4609.616581   9015.343571
     2   0 1 1      1.852581      3.670329      3.670329     -5.488076
     2   0 0 2   -207.791339  -2472.632559  -2472.632559   4737.473779


 Task  times  cpu:     5242.3s     wall:     5242.3s


                                NWChem Input Module
                                -------------------


 Summary of allocated global arrays
-----------------------------------
  No active global arrays


MA_summarize_allocated_blocks: starting scan ...
heap block 'gridpts', handle 106, address 0x59327a7c4460:
	type of elements:		double precision
	number of elements:		203683869
	address of client space:	0x59327a7c44c0
	index for client space:		43885939
	total number of bytes:		1629471056
MA_summarize_allocated_blocks: scan completed: 1 heap block, 0 stack blocks
MA usage statistics:

	allocation statistics:
					      heap	     stack
					      ----	     -----
	current number of blocks	         1	         0
	maximum number of blocks	        34	        58
	current total bytes		1629471056	         0
	maximum total bytes		1648841992	  44475784
	maximum total K-bytes		   1648842	     44476
	maximum total M-bytes		      1649	        45


                                     CITATION
                                     --------
                Please cite the following reference when publishing
                           results obtained with NWChem:

          E. Apra, E. J. Bylaska, W. A. de Jong, N. Govind, K. Kowalski,
       T. P. Straatsma, M. Valiev, H. J. J. van Dam, Y. Alexeev, J. Anchell,
       V. Anisimov, F. W. Aquino, R. Atta-Fynn, J. Autschbach, N. P. Bauman,
     J. C. Becca, D. E. Bernholdt, K. Bhaskaran-Nair, S. Bogatko, P. Borowski,
         J. Boschen, J. Brabec, A. Bruner, E. Cauet, Y. Chen, G. N. Chuev,
      C. J. Cramer, J. Daily, M. J. O. Deegan, T. H. Dunning Jr., M. Dupuis,
   K. G. Dyall, G. I. Fann, S. A. Fischer, A. Fonari, H. Fruchtl, L. Gagliardi,
      J. Garza, N. Gawande, S. Ghosh, K. Glaesemann, A. W. Gotz, J. Hammond,
       V. Helms, E. D. Hermes, K. Hirao, S. Hirata, M. Jacquelin, L. Jensen,
   B. G. Johnson, H. Jonsson, R. A. Kendall, M. Klemm, R. Kobayashi, V. Konkov,
      S. Krishnamoorthy, M. Krishnan, Z. Lin, R. D. Lins, R. J. Littlefield,
      A. J. Logsdail, K. Lopata, W. Ma, A. V. Marenich, J. Martin del Campo,
   D. Mejia-Rodriguez, J. E. Moore, J. M. Mullin, T. Nakajima, D. R. Nascimento,
    J. A. Nichols, P. J. Nichols, J. Nieplocha, A. Otero-de-la-Roza, B. Palmer,
    A. Panyala, T. Pirojsirikul, B. Peng, R. Peverati, J. Pittner, L. Pollack,
   R. M. Richard, P. Sadayappan, G. C. Schatz, W. A. Shelton, D. W. Silverstein,
   D. M. A. Smith, T. A. Soares, D. Song, M. Swart, H. L. Taylor, G. S. Thomas,
            V. Tipparaju, D. G. Truhlar, K. Tsemekhman, T. Van Voorhis,
      A. Vazquez-Mayagoitia, P. Verma, O. Villa, A. Vishnu, K. D. Vogiatzis,
        D. Wang, J. H. Weare, M. J. Williamson, T. L. Windus, K. Wolinski,
        A. T. Wong, Q. Wu, C. Yang, Q. Yu, M. Zacharias, Z. Zhang, Y. Zhao,
                                and R. J. Harrison
                        "NWChem: Past, present, and future
                         J. Chem. Phys. 152, 184102 (2020)
                               doi:10.1063/5.0004997

                                      AUTHORS
                                      -------
  E. Apra, E. J. Bylaska, N. Govind, K. Kowalski, M. Valiev, D. Mejia-Rodriguez,
       A. Kunitsa, N. P. Bauman, A. Panyala, W. A. de Jong, T. P. Straatsma,
   H. J. J. van Dam, D. Wang, T. L. Windus, J. Hammond, J. Autschbach, A. Woods,
    K. Bhaskaran-Nair, J. Brabec, K. Lopata, S. A. Fischer, S. Krishnamoorthy,
     M. Jacquelin, W. Ma, M. Klemm, O. Villa, Y. Chen, V. Anisimov, F. Aquino,
     S. Hirata, M. T. Hackler, E. Hermes, L. Jensen, J. E. Moore, J. C. Becca,
      V. Konjkov, T. Risthaus, M. Malagoli, A. Marenich, A. Otero-de-la-Roza,
        J. Mullin, P. Nichols, R. Peverati, J. Pittner, Y. Zhao, P.-D. Fan,
        A. Fonari, M. J. Williamson, R. J. Harrison, J. R. Rehr, M. Dupuis,
     D. Silverstein, D. M. A. Smith, J. Nieplocha, V. Tipparaju, M. Krishnan,
     B. E. Van Kuiken, A. Vazquez-Mayagoitia, M. Swart, Q. Wu, T. Van Voorhis,
     A. A. Auer, M. Nooijen, L. D. Crosby, E. Brown, G. Cisneros, G. I. Fann,
   H. Fruchtl, J. Garza, K. Hirao, R. A. Kendall, J. A. Nichols, K. Tsemekhman,
    K. Wolinski, J. Anchell, D. E. Bernholdt, P. Borowski, T. Clark, D. Clerc,
   H. Dachsel, M. J. O. Deegan, K. Dyall, D. Elwood, E. Glendening, M. Gutowski,
   A. C. Hess, J. Jaffe, B. G. Johnson, J. Ju, R. Kobayashi, R. Kutteh, Z. Lin,
   R. Littlefield, X. Long, B. Meng, T. Nakajima, S. Niu, L. Pollack, M. Rosing,
   K. Glaesemann, G. Sandrone, M. Stave, H. Taylor, G. Thomas, J. H. van Lenthe,
                               A. T. Wong, Z. Zhang.

 Total times  cpu:     5242.9s     wall:     5242.9s
