 argument  1 = nwchem.in
  NWChem w/ OpenMP: maximum threads =    1
                                         
                                         


             Northwest Computational Chemistry Package (NWChem) 7.2.3
             --------------------------------------------------------


                    Environmental Molecular Sciences Laboratory
                       Pacific Northwest National Laboratory
                                Richland, WA 99352

                              Copyright (c) 1994-2022
                       Pacific Northwest National Laboratory
                            Battelle Memorial Institute

             NWChem is an open-source computational chemistry package
                        distributed under the terms of the
                      Educational Community License (ECL) 2.0
             A copy of the license is included with this distribution
                              in the LICENSE.TXT file

                                  ACKNOWLEDGMENT
                                  --------------

            This software and its documentation were developed at the
            EMSL at Pacific Northwest National Laboratory, a multiprogram
            national laboratory, operated for the U.S. Department of Energy
            by Battelle under Contract Number DE-AC05-76RL01830. Support
            for this work was provided by the Department of Energy Office
            of Biological and Environmental Research, Office of Basic
            Energy Sciences, and the Office of Advanced Scientific Computing.


           Job information
           ---------------

    hostname        = 60b9a5a70ab6
    program         = nwchem
    date            = Sat Jun 28 22:20:34 2025

    compiled        = Fri_May_02_22:05:35_2025
    source          = /opt/nwchem
    nwchem branch   = 7.2.3
    nwchem revision = N/A
    ga revision     = 5.9.1
    use scalapack   = T
    input           = nwchem.in
    prefix          = ni_singlepoint.
    data base       = ./ni_singlepoint.db
    status          = startup
    nproc           =        5
    time left       =     -1s



           Memory information
           ------------------

    heap     =    509724440 doubles =     3888.9 Mbytes
    stack    =    509724441 doubles =     3888.9 Mbytes
    global   =    291271111 doubles =     2222.2 Mbytes (distinct from heap & stack)
    total    =   1310719992 doubles =    10000.0 Mbytes
    verify   = yes
    hardfail = no 


           Directory information
           ---------------------

  0 permanent = .
  0 scratch   = .




                                NWChem Input Module
                                -------------------


                          Ni complex single-point energy
                          ------------------------------

 Scaling coordinates for geometry "geometry" by  1.889725989
 (inverse scale =  0.529177249)

 C1  symmetry detected

          ------
          auto-z
          ------
  no constraints, skipping    0.0000000000000000     
  no constraints, skipping    0.0000000000000000     


                             Geometry "geometry" -> ""
                             -------------------------

 Output coordinates in angstroms (scale by  1.889725989 to convert to a.u.)

  No.       Tag          Charge          X              Y              Z
 ---- ---------------- ---------- -------------- -------------- --------------
    1 C                    6.0000     1.80736907     0.47109703    -1.53133685
    2 O                    8.0000     1.51616233     1.23608067    -2.46039864
    3 Ni                  28.0000     0.18931388    -0.35142152    -0.61984086
    4 C                    6.0000    -1.31987280     0.25077487     0.29363920
    5 N                    7.0000    -2.23023005    -0.61694079     0.78958164
    6 N                    7.0000    -1.80484173     1.48300246     0.51842968
    7 C                    6.0000    -3.34616126     0.02304105     1.48279467
    8 C                    6.0000    -2.00343570    -2.02401659     0.79769931
    9 C                    6.0000    -3.15961673     1.48725378     1.07440774
   10 C                    6.0000    -1.16334714     2.68780242     0.09799473
   11 H                    1.0000    -4.30135071    -0.39015665     1.15522382
   12 H                    1.0000    -3.26447125    -0.12268761     2.56511977
   13 C                    6.0000    -2.50717753    -2.79390078    -0.25576028
   14 C                    6.0000    -1.26469659    -2.59370624     1.84032904
   15 H                    1.0000    -3.87903159     1.79735174     0.31064927
   16 H                    1.0000    -3.23370828     2.17906889     1.91428347
   17 C                    6.0000    -0.44561523     3.42119757     1.04647448
   18 C                    6.0000    -1.28402232     3.10795714    -1.23057364
   19 C                    6.0000    -2.21545327    -4.15371141    -0.27323387
   20 C                    6.0000    -3.34879914    -2.18268836    -1.35794392
   21 C                    6.0000    -1.00288410    -3.95887037     1.78913022
   22 C                    6.0000    -0.76461829    -1.76954248     3.01021029
   23 C                    6.0000     0.19421140     4.58293282     0.62965526
   24 C                    6.0000    -0.34749777     2.98089440     2.49384738
   25 C                    6.0000    -0.62669459     4.27406364    -1.60479209
   26 C                    6.0000    -2.15127791     2.36698404    -2.22966117
   27 C                    6.0000    -1.46280891    -4.73186055     0.73535865
   28 H                    1.0000    -2.57845799    -4.76780987    -1.08866916
   29 C                    6.0000    -4.74303318    -2.81213989    -1.39362391
   30 C                    6.0000    -2.65475388    -2.29209981    -2.71548265
   31 H                    1.0000    -3.46331091    -1.11994317    -1.13680841
   32 H                    1.0000    -0.42644468    -4.42251595     2.58097440
   33 C                    6.0000     0.75716419    -1.83130710     3.13480037
   34 C                    6.0000    -1.44634772    -2.21196943     4.30750867
   35 H                    1.0000    -1.02696079    -0.72632825     2.82494979
   36 C                    6.0000     0.11156469     5.00229292    -0.68682983
   37 H                    1.0000     0.77113448     5.16081311     1.34191967
   38 C                    6.0000    -0.92646383     4.03694391     3.43756025
   39 C                    6.0000     1.09459103     2.63854725     2.86219031
   40 H                    1.0000    -0.93649560     2.06823725     2.60780243
   41 H                    1.0000    -0.68869760     4.61503524    -2.63043445
   42 C                    6.0000    -1.44676977     2.13552539    -3.56589020
   43 C                    6.0000    -3.46646678     3.12492613    -2.44198765
   44 H                    1.0000    -2.38174479     1.38563785    -1.80897516
   45 H                    1.0000    -1.23973798    -5.79104579     0.70362491
   46 H                    1.0000    -5.24021500    -2.72930249    -0.42530341
   47 H                    1.0000    -4.69052774    -3.87231215    -1.64953230
   48 H                    1.0000    -5.36515913    -2.31907639    -2.14270345
   49 H                    1.0000    -1.68345720    -1.79523259    -2.68897979
   50 H                    1.0000    -3.26112303    -1.82481435    -3.49411066
   51 H                    1.0000    -2.49837273    -3.33671874    -2.99491118
   52 H                    1.0000     1.22909957    -1.46920814     2.22046155
   53 H                    1.0000     1.10061455    -2.85190070     3.31967477
   54 H                    1.0000     1.09606131    -1.20870566     3.96544532
   55 H                    1.0000    -2.53374332    -2.16267516     4.22217732
   56 H                    1.0000    -1.13715185    -1.57775408     5.14026012
   57 H                    1.0000    -1.18168876    -3.24236067     4.55472836
   58 H                    1.0000     0.62238960     5.90457891    -0.99949038
   59 H                    1.0000    -1.96242783     4.27336369     3.18632388
   60 H                    1.0000    -0.35418597     4.96527990     3.38563550
   61 H                    1.0000    -0.89439095     3.68449685     4.47048177
   62 H                    1.0000     1.49360869     1.87410670     2.19524891
   63 H                    1.0000     1.15324410     2.27140835     3.88979421
   64 H                    1.0000     1.73839606     3.51725939     2.78265684
   65 H                    1.0000    -0.47405266     1.66830243    -3.41722820
   66 H                    1.0000    -1.29368510     3.07605345    -4.10053897
   67 H                    1.0000    -2.06383219     1.49844951    -4.20413485
   68 H                    1.0000    -3.99584786     3.29705898    -1.50259253
   69 H                    1.0000    -4.12583105     2.57093462    -3.11351104
   70 H                    1.0000    -3.27156180     4.10143017    -2.89161007
   71 N                    7.0000     1.62489761    -0.96471239    -1.74157571
   72 C                    6.0000     4.35344454     2.13875340     1.51465725
   73 C                    6.0000     3.89484213     2.88477403     0.43831530
   74 H                    1.0000     4.29701448     0.22453350     2.48385739
   75 C                    6.0000     3.96037664     0.81383275     1.63978232
   76 C                    6.0000     3.07216259     2.30493570    -0.51319239
   77 C                    6.0000     2.68751403     0.96658552    -0.40938083
   78 C                    6.0000     3.12820779     0.23266794     0.69422625
   79 H                    1.0000     2.71144922     2.87038069    -1.36130987
   80 H                    1.0000     2.83184520    -0.79583130     0.83071611
   81 H                    1.0000     5.00447782     2.58750455     2.25429120
   82 H                    1.0000     4.18365373     3.92335558     0.33292580
   83 C                    6.0000     2.55640499    -1.95193868    -1.25433313
   84 C                    6.0000     3.88047094    -1.91216845    -1.66675981
   85 C                    6.0000     2.10582267    -2.97215140    -0.42985459
   86 C                    6.0000     4.76507565    -2.88725936    -1.23147713
   87 H                    1.0000     4.21203158    -1.10895659    -2.31402833
   88 C                    6.0000     2.99511910    -3.94483283     0.00504259
   89 H                    1.0000     1.06490049    -2.98159458    -0.12144593
   90 C                    6.0000     4.32495771    -3.90268623    -0.39275490
   91 H                    1.0000     5.79954486    -2.85428181    -1.54788449
   92 H                    1.0000     2.64741006    -4.73533006     0.65828797
   93 H                    1.0000     5.01745809    -4.66195440    -0.05319807
   94 C                    6.0000     1.18647846    -1.30931141    -3.10909272
   95 H                    1.0000     2.02560403    -1.22847940    -3.80467294
   96 H                    1.0000     0.81748490    -2.33382285    -3.09795068
   97 H                    1.0000     0.40359630    -0.62786367    -3.42378260

      Atomic Mass 
      ----------- 

      C                 12.000000
      O                 15.994910
      Ni                57.935300
      N                 14.003070
      H                  1.007825


 Effective nuclear repulsion energy (a.u.)    7254.6757048360

            Nuclear Dipole moment (a.u.) 
            ----------------------------
        X                 Y               Z
 ---------------- ---------------- ----------------
     0.0000000000     0.0000000000     0.0000000000



                                Z-matrix (autoz)
                                -------- 

 Units are Angstrom for bonds and degrees for angles

      Type          Name      I     J     K     L     M      Value
      ----------- --------  ----- ----- ----- ----- ----- ----------
    1 Stretch                  1     2                       1.23821
    2 Stretch                  1     3                       2.03112
    3 Stretch                  1    71                       1.46255
    4 Stretch                  1    77                       1.50962
    5 Stretch                  3     4                       1.86406
    6 Stretch                  3    71                       1.92232
    7 Stretch                  4     5                       1.35190
    8 Stretch                  4     6                       1.34317
    9 Stretch                  5     7                       1.46131
   10 Stretch                  5     8                       1.42526
   11 Stretch                  6     9                       1.46443
   12 Stretch                  6    10                       1.42822
   13 Stretch                  7     9                       1.53150
   14 Stretch                  7    11                       1.09106
   15 Stretch                  7    12                       1.09514
   16 Stretch                  8    13                       1.39866
   17 Stretch                  8    14                       1.39906
   18 Stretch                  9    15                       1.09410
   19 Stretch                  9    16                       1.09064
   20 Stretch                 10    17                       1.39736
   21 Stretch                 10    18                       1.39864
   22 Stretch                 13    19                       1.39086
   23 Stretch                 13    20                       1.51549
   24 Stretch                 14    21                       1.39099
   25 Stretch                 14    22                       1.51590
   26 Stretch                 17    23                       1.39023
   27 Stretch                 17    24                       1.51604
   28 Stretch                 18    25                       1.38994
   29 Stretch                 18    26                       1.51636
   30 Stretch                 19    27                       1.38491
   31 Stretch                 19    28                       1.08343
   32 Stretch                 20    29                       1.53015
   33 Stretch                 20    30                       1.52859
   34 Stretch                 20    31                       1.09153
   35 Stretch                 21    27                       1.38545
   36 Stretch                 21    32                       1.08364
   37 Stretch                 22    33                       1.52812
   38 Stretch                 22    34                       1.53084
   39 Stretch                 22    35                       1.09153
   40 Stretch                 23    36                       1.38413
   41 Stretch                 23    37                       1.08356
   42 Stretch                 24    38                       1.53004
   43 Stretch                 24    39                       1.52725
   44 Stretch                 24    40                       1.09218
   45 Stretch                 25    36                       1.38492
   46 Stretch                 25    41                       1.08261
   47 Stretch                 26    42                       1.52821
   48 Stretch                 26    43                       1.53274
   49 Stretch                 26    44                       1.09231
   50 Stretch                 27    45                       1.08289
   51 Stretch                 29    46                       1.09165
   52 Stretch                 29    47                       1.09188
   53 Stretch                 29    48                       1.09145
   54 Stretch                 30    49                       1.09133
   55 Stretch                 30    50                       1.09193
   56 Stretch                 30    51                       1.09260
   57 Stretch                 33    52                       1.09080
   58 Stretch                 33    53                       1.09259
   59 Stretch                 33    54                       1.09200
   60 Stretch                 34    55                       1.09185
   61 Stretch                 34    56                       1.09147
   62 Stretch                 34    57                       1.09218
   63 Stretch                 36    58                       1.08297
   64 Stretch                 38    59                       1.09190
   65 Stretch                 38    60                       1.09179
   66 Stretch                 38    61                       1.09187
   67 Stretch                 39    62                       1.09014
   68 Stretch                 39    63                       1.09280
   69 Stretch                 39    64                       1.09222
   70 Stretch                 42    65                       1.08930
   71 Stretch                 42    66                       1.09265
   72 Stretch                 42    67                       1.09270
   73 Stretch                 43    68                       1.09194
   74 Stretch                 43    69                       1.09207
   75 Stretch                 43    70                       1.09257
   76 Stretch                 71    83                       1.44213
   77 Stretch                 71    94                       1.47684
   78 Stretch                 72    73                       1.38758
   79 Stretch                 72    75                       1.38765
   80 Stretch                 72    81                       1.08272
   81 Stretch                 73    76                       1.38506
   82 Stretch                 73    82                       1.08313
   83 Stretch                 74    75                       1.08308
   84 Stretch                 75    78                       1.38720
   85 Stretch                 76    77                       1.39639
   86 Stretch                 76    79                       1.08127
   87 Stretch                 77    78                       1.39671
   88 Stretch                 78    80                       1.07901
   89 Stretch                 83    84                       1.38738
   90 Stretch                 83    85                       1.38695
   91 Stretch                 84    86                       1.38665
   92 Stretch                 84    87                       1.08353
   93 Stretch                 85    88                       1.38784
   94 Stretch                 85    89                       1.08569
   95 Stretch                 86    90                       1.38861
   96 Stretch                 86    91                       1.08228
   97 Stretch                 88    90                       1.38870
   98 Stretch                 88    92                       1.08283
   99 Stretch                 90    93                       1.08229
  100 Stretch                 94    95                       1.09293
  101 Stretch                 94    96                       1.08899
  102 Stretch                 94    97                       1.08458
  103 Bend                     1     3     4               137.22800
  104 Bend                     1     3    71                43.31498
  105 Bend                     1    71     3                72.30719
  106 Bend                     1    71    83               122.88081
  107 Bend                     1    71    94               113.52905
  108 Bend                     1    77    76               114.82988
  109 Bend                     1    77    78               126.77915
  110 Bend                     2     1     3               113.55034
  111 Bend                     2     1    71               117.99017
  112 Bend                     2     1    77               119.47118
  113 Bend                     3     1    71                64.37783
  114 Bend                     3     1    77               105.29844
  115 Bend                     3     4     5               121.17218
  116 Bend                     3     4     6               132.12184
  117 Bend                     3    71    83               120.23996
  118 Bend                     3    71    94               113.14636
  119 Bend                     4     3    71               173.53908
  120 Bend                     4     5     7               114.02668
  121 Bend                     4     5     8               121.91061
  122 Bend                     4     6     9               113.59249
  123 Bend                     4     6    10               124.22529
  124 Bend                     5     4     6               106.51710
  125 Bend                     5     7     9               101.48993
  126 Bend                     5     7    11               111.11686
  127 Bend                     5     7    12               110.70678
  128 Bend                     5     8    13               118.80438
  129 Bend                     5     8    14               119.35816
  130 Bend                     6     9     7               102.18960
  131 Bend                     6     9    15               110.12709
  132 Bend                     6     9    16               110.91936
  133 Bend                     6    10    17               118.27006
  134 Bend                     6    10    18               119.62258
  135 Bend                     7     5     8               123.44786
  136 Bend                     7     9    15               112.14985
  137 Bend                     7     9    16               113.13071
  138 Bend                     8    13    19               118.16916
  139 Bend                     8    13    20               121.72165
  140 Bend                     8    14    21               118.13769
  141 Bend                     8    14    22               121.86617
  142 Bend                     9     6    10               121.65726
  143 Bend                     9     7    11               112.87044
  144 Bend                     9     7    12               112.43733
  145 Bend                    10    17    23               118.12927
  146 Bend                    10    17    24               121.92659
  147 Bend                    10    18    25               117.83776
  148 Bend                    10    18    26               121.89862
  149 Bend                    11     7    12               108.15724
  150 Bend                    13     8    14               121.82607
  151 Bend                    13    19    27               120.86254
  152 Bend                    13    19    28               119.56007
  153 Bend                    13    20    29               110.92016
  154 Bend                    13    20    30               111.40000
  155 Bend                    13    20    31               107.67357
  156 Bend                    14    21    27               120.86980
  157 Bend                    14    21    32               119.54758
  158 Bend                    14    22    33               111.68274
  159 Bend                    14    22    34               110.48532
  160 Bend                    14    22    35               108.01965
  161 Bend                    15     9    16               108.24712
  162 Bend                    17    10    18               122.10091
  163 Bend                    17    23    36               120.72151
  164 Bend                    17    23    37               119.57874
  165 Bend                    17    24    38               111.34015
  166 Bend                    17    24    39               110.88350
  167 Bend                    17    24    40               107.90270
  168 Bend                    18    25    36               120.98371
  169 Bend                    18    25    41               119.48631
  170 Bend                    18    26    42               112.73381
  171 Bend                    18    26    43               109.90051
  172 Bend                    18    26    44               107.81419
  173 Bend                    19    13    20               120.10917
  174 Bend                    19    27    21               120.09367
  175 Bend                    19    27    45               119.92951
  176 Bend                    20    29    46               111.28987
  177 Bend                    20    29    47               111.16574
  178 Bend                    20    29    48               110.45891
  179 Bend                    20    30    49               110.48422
  180 Bend                    20    30    50               110.51874
  181 Bend                    20    30    51               111.13395
  182 Bend                    21    14    22               119.99350
  183 Bend                    21    27    45               119.97534
  184 Bend                    22    33    52               110.43197
  185 Bend                    22    33    53               111.38251
  186 Bend                    22    33    54               110.36702
  187 Bend                    22    34    55               111.36045
  188 Bend                    22    34    56               110.63899
  189 Bend                    22    34    57               110.88943
  190 Bend                    23    17    24               119.94369
  191 Bend                    23    36    25               120.19525
  192 Bend                    23    36    58               119.92463
  193 Bend                    24    38    59               111.50255
  194 Bend                    24    38    60               111.05100
  195 Bend                    24    38    61               110.46164
  196 Bend                    24    39    62               110.80877
  197 Bend                    24    39    63               110.65753
  198 Bend                    24    39    64               111.01883
  199 Bend                    25    18    26               120.20190
  200 Bend                    25    36    58               119.87968
  201 Bend                    26    42    65               110.93428
  202 Bend                    26    42    66               111.22696
  203 Bend                    26    42    67               109.79727
  204 Bend                    26    43    68               112.01036
  205 Bend                    26    43    69               110.63462
  206 Bend                    26    43    70               110.23718
  207 Bend                    27    19    28               119.57693
  208 Bend                    27    21    32               119.58158
  209 Bend                    29    20    30               111.31893
  210 Bend                    29    20    31               108.03812
  211 Bend                    30    20    31               107.29217
  212 Bend                    33    22    34               111.26656
  213 Bend                    33    22    35               106.96657
  214 Bend                    34    22    35               108.24106
  215 Bend                    36    23    37               119.69736
  216 Bend                    36    25    41               119.52919
  217 Bend                    38    24    39               111.30037
  218 Bend                    38    24    40               107.95924
  219 Bend                    39    24    40               107.26179
  220 Bend                    42    26    43               110.44708
  221 Bend                    42    26    44               107.33449
  222 Bend                    43    26    44               108.45605
  223 Bend                    46    29    47               107.66643
  224 Bend                    46    29    48               108.35462
  225 Bend                    47    29    48               107.76928
  226 Bend                    49    30    50               108.46480
  227 Bend                    49    30    51               108.30769
  228 Bend                    50    30    51               107.83454
  229 Bend                    52    33    53               108.41606
  230 Bend                    52    33    54               108.30490
  231 Bend                    53    33    54               107.83724
  232 Bend                    55    34    56               108.39233
  233 Bend                    55    34    57               107.55462
  234 Bend                    56    34    57               107.86920
  235 Bend                    59    38    60               107.59372
  236 Bend                    59    38    61               108.38688
  237 Bend                    60    38    61               107.70172
  238 Bend                    62    39    63               108.66688
  239 Bend                    62    39    64               107.68924
  240 Bend                    63    39    64               107.88611
  241 Bend                    65    42    66               108.11198
  242 Bend                    65    42    67               109.50669
  243 Bend                    66    42    67               107.16777
  244 Bend                    68    43    69               108.43685
  245 Bend                    68    43    70               107.43530
  246 Bend                    69    43    70               107.94193
  247 Bend                    71     1    77               120.11881
  248 Bend                    71    83    84               119.76133
  249 Bend                    71    83    85               119.64026
  250 Bend                    71    94    95               110.12942
  251 Bend                    71    94    96               108.09742
  252 Bend                    71    94    97               109.65466
  253 Bend                    72    73    76               120.27308
  254 Bend                    72    73    82               120.19055
  255 Bend                    72    75    74               120.11453
  256 Bend                    72    75    78               120.56205
  257 Bend                    73    72    75               119.31844
  258 Bend                    73    72    81               120.38422
  259 Bend                    73    76    77               120.91590
  260 Bend                    73    76    79               121.20302
  261 Bend                    74    75    78               119.32214
  262 Bend                    75    72    81               120.29528
  263 Bend                    75    78    77               120.51241
  264 Bend                    75    78    80               118.54686
  265 Bend                    76    73    82               119.53502
  266 Bend                    76    77    78               118.38859
  267 Bend                    77    76    79               117.88038
  268 Bend                    77    78    80               120.94069
  269 Bend                    83    71    94               110.17399
  270 Bend                    83    84    86               119.69326
  271 Bend                    83    84    87               119.39745
  272 Bend                    83    85    88               119.58070
  273 Bend                    83    85    89               119.12655
  274 Bend                    84    83    85               120.52051
  275 Bend                    84    86    90               120.10736
  276 Bend                    84    86    91               119.77289
  277 Bend                    85    88    90               120.17107
  278 Bend                    85    88    92               119.66533
  279 Bend                    86    84    87               120.90289
  280 Bend                    86    90    88               119.91561
  281 Bend                    86    90    93               119.98037
  282 Bend                    88    85    89               121.28155
  283 Bend                    88    90    93               120.10360
  284 Bend                    90    86    91               120.11975
  285 Bend                    90    88    92               120.16340
  286 Bend                    95    94    96               109.64821
  287 Bend                    95    94    97               108.84896
  288 Bend                    96    94    97               110.45602
  289 Torsion                  1     3     4     5        -179.92166
  290 Torsion                  1     3     4     6           5.79752
  291 Torsion                  1     3    71    83         118.27095
  292 Torsion                  1     3    71    94        -108.62342
  293 Torsion                  1    71     3     4          98.25957
  294 Torsion                  1    71    83    84         -59.13882
  295 Torsion                  1    71    83    85         124.05332
  296 Torsion                  1    71    94    95          75.58553
  297 Torsion                  1    71    94    96        -164.64315
  298 Torsion                  1    71    94    97         -44.16934
  299 Torsion                  1    77    76    73        -179.11937
  300 Torsion                  1    77    76    79           0.57926
  301 Torsion                  1    77    78    75         178.69780
  302 Torsion                  1    77    78    80          -1.23088
  303 Torsion                  2     1     3     4         -59.53772
  304 Torsion                  2     1     3    71         111.02409
  305 Torsion                  2     1    71     3        -104.29590
  306 Torsion                  2     1    71    83         140.66442
  307 Torsion                  2     1    71    94           3.83047
  308 Torsion                  2     1    77    76           1.80707
  309 Torsion                  2     1    77    78        -178.76753
  310 Torsion                  3     1    71    83        -115.03969
  311 Torsion                  3     1    71    94         108.12637
  312 Torsion                  3     1    77    76        -127.27108
  313 Torsion                  3     1    77    78          52.15432
  314 Torsion                  3     4     5     7         179.66524
  315 Torsion                  3     4     5     8           8.36574
  316 Torsion                  3     4     6     9         169.14008
  317 Torsion                  3     4     6    10          -2.64404
  318 Torsion                  3    71     1    77          93.44406
  319 Torsion                  3    71    83    84        -146.72947
  320 Torsion                  3    71    83    85          36.46267
  321 Torsion                  3    71    94    95         155.54446
  322 Torsion                  3    71    94    96         -84.68422
  323 Torsion                  3    71    94    97          35.78959
  324 Torsion                  4     3     1    71        -170.56181
  325 Torsion                  4     3     1    77          72.96516
  326 Torsion                  4     3    71    83        -143.46948
  327 Torsion                  4     3    71    94         -10.36385
  328 Torsion                  4     5     7     9          12.27272
  329 Torsion                  4     5     7    11         132.51449
  330 Torsion                  4     5     7    12        -107.27915
  331 Torsion                  4     5     8    13         -95.00032
  332 Torsion                  4     5     8    14          83.79450
  333 Torsion                  4     6     9     7          12.94336
  334 Torsion                  4     6     9    15        -106.39601
  335 Torsion                  4     6     9    16         133.79549
  336 Torsion                  4     6    10    17        -101.34433
  337 Torsion                  4     6    10    18          79.56033
  338 Torsion                  5     4     3    71          88.72389
  339 Torsion                  5     4     6     9          -5.75762
  340 Torsion                  5     4     6    10        -177.54173
  341 Torsion                  5     7     9     6         -13.87820
  342 Torsion                  5     7     9    15         104.02801
  343 Torsion                  5     7     9    16        -133.18578
  344 Torsion                  5     8    13    19         176.51061
  345 Torsion                  5     8    13    20          -3.45196
  346 Torsion                  5     8    14    21        -176.91123
  347 Torsion                  5     8    14    22           3.68034
  348 Torsion                  6     4     3    71         -85.55694
  349 Torsion                  6     4     5     7          -4.75642
  350 Torsion                  6     4     5     8        -176.05592
  351 Torsion                  6     9     7    11        -132.87412
  352 Torsion                  6     9     7    12         104.43589
  353 Torsion                  6    10    17    23         179.06004
  354 Torsion                  6    10    17    24          -0.69648
  355 Torsion                  6    10    18    25        -178.97147
  356 Torsion                  6    10    18    26           3.88185
  357 Torsion                  7     5     8    13          94.53096
  358 Torsion                  7     5     8    14         -86.67423
  359 Torsion                  7     9     6    10        -175.03574
  360 Torsion                  8     5     7     9        -176.58004
  361 Torsion                  8     5     7    11         -56.33826
  362 Torsion                  8     5     7    12          63.86809
  363 Torsion                  8    13    19    27           0.90291
  364 Torsion                  8    13    19    28        -178.84928
  365 Torsion                  8    13    20    29        -118.93573
  366 Torsion                  8    13    20    30         116.46409
  367 Torsion                  8    13    20    31          -0.91918
  368 Torsion                  8    14    21    27          -0.07691
  369 Torsion                  8    14    21    32         179.54930
  370 Torsion                  8    14    22    33        -121.13015
  371 Torsion                  8    14    22    34         114.45262
  372 Torsion                  8    14    22    35          -3.77080
  373 Torsion                  9     6    10    17          87.50586
  374 Torsion                  9     6    10    18         -91.58949
  375 Torsion                 10     6     9    15          65.62489
  376 Torsion                 10     6     9    16         -54.18361
  377 Torsion                 10    17    23    36           0.45909
  378 Torsion                 10    17    23    37        -178.97719
  379 Torsion                 10    17    24    38        -119.90254
  380 Torsion                 10    17    24    39         115.59236
  381 Torsion                 10    17    24    40          -1.60228
  382 Torsion                 10    18    25    36          -0.67028
  383 Torsion                 10    18    25    41         179.00576
  384 Torsion                 10    18    26    42        -133.71136
  385 Torsion                 10    18    26    43         102.61207
  386 Torsion                 10    18    26    44         -15.41987
  387 Torsion                 11     7     9    15         -14.96790
  388 Torsion                 11     7     9    16         107.81831
  389 Torsion                 12     7     9    15        -137.65790
  390 Torsion                 12     7     9    16         -14.87169
  391 Torsion                 13     8    14    21           1.84582
  392 Torsion                 13     8    14    22        -177.56260
  393 Torsion                 13    19    27    21           0.80144
  394 Torsion                 13    19    27    45        -179.64017
  395 Torsion                 13    20    29    46          55.63835
  396 Torsion                 13    20    29    47         -64.37108
  397 Torsion                 13    20    29    48         176.04215
  398 Torsion                 13    20    30    49         -58.47851
  399 Torsion                 13    20    30    50        -178.53246
  400 Torsion                 13    20    30    51          61.78026
  401 Torsion                 14     8    13    19          -2.25312
  402 Torsion                 14     8    13    20         177.78432
  403 Torsion                 14    21    27    19          -1.22694
  404 Torsion                 14    21    27    45         179.21487
  405 Torsion                 14    22    33    52          58.67850
  406 Torsion                 14    22    33    53         -61.84605
  407 Torsion                 14    22    33    54         178.40164
  408 Torsion                 14    22    34    55         -55.68782
  409 Torsion                 14    22    34    56        -176.30758
  410 Torsion                 14    22    34    57          64.04198
  411 Torsion                 17    10    18    25           1.96908
  412 Torsion                 17    10    18    26        -175.17760
  413 Torsion                 17    23    36    25           0.78478
  414 Torsion                 17    23    36    58        -179.45449
  415 Torsion                 17    24    38    59          56.57677
  416 Torsion                 17    24    38    60         -63.40598
  417 Torsion                 17    24    38    61         177.16432
  418 Torsion                 17    24    39    62         -56.39519
  419 Torsion                 17    24    39    63        -177.00639
  420 Torsion                 17    24    39    64          63.22539
  421 Torsion                 18    10    17    23          -1.86831
  422 Torsion                 18    10    17    24         178.37517
  423 Torsion                 18    25    36    23          -0.67548
  424 Torsion                 18    25    36    58         179.56368
  425 Torsion                 18    26    42    65          52.10325
  426 Torsion                 18    26    42    66         -68.27192
  427 Torsion                 18    26    42    67         173.27996
  428 Torsion                 18    26    43    68         -55.46952
  429 Torsion                 18    26    43    69        -176.58249
  430 Torsion                 18    26    43    70          64.09969
  431 Torsion                 19    13    20    29          61.10242
  432 Torsion                 19    13    20    30         -63.49776
  433 Torsion                 19    13    20    31         179.11897
  434 Torsion                 19    27    21    32         179.14698
  435 Torsion                 20    13    19    27        -179.13390
  436 Torsion                 20    13    19    28           1.11391
  437 Torsion                 21    14    22    33          59.47218
  438 Torsion                 21    14    22    34         -64.94506
  439 Torsion                 21    14    22    35         176.83153
  440 Torsion                 21    27    19    28        -179.44642
  441 Torsion                 22    14    21    27         179.34299
  442 Torsion                 22    14    21    32          -1.03080
  443 Torsion                 23    17    24    38          60.34526
  444 Torsion                 23    17    24    39         -64.15985
  445 Torsion                 23    17    24    40         178.64551
  446 Torsion                 23    36    25    41         179.64863
  447 Torsion                 24    17    23    36        -179.77938
  448 Torsion                 24    17    23    37           0.78433
  449 Torsion                 25    18    26    42          49.20810
  450 Torsion                 25    18    26    43         -74.46847
  451 Torsion                 25    18    26    44         167.49959
  452 Torsion                 25    36    23    37        -179.77960
  453 Torsion                 26    18    25    36         176.52687
  454 Torsion                 26    18    25    41          -3.79710
  455 Torsion                 28    19    27    45           0.11197
  456 Torsion                 29    20    30    49         177.14553
  457 Torsion                 29    20    30    50          57.09158
  458 Torsion                 29    20    30    51         -62.59570
  459 Torsion                 30    20    29    46        -179.71556
  460 Torsion                 30    20    29    47          60.27501
  461 Torsion                 30    20    29    48         -59.31176
  462 Torsion                 31    20    29    46         -62.15645
  463 Torsion                 31    20    29    47         177.83412
  464 Torsion                 31    20    29    48          58.24735
  465 Torsion                 31    20    30    49          59.13554
  466 Torsion                 31    20    30    50         -60.91840
  467 Torsion                 31    20    30    51         179.39431
  468 Torsion                 32    21    27    45          -0.41121
  469 Torsion                 33    22    34    55         179.65704
  470 Torsion                 33    22    34    56          59.03729
  471 Torsion                 33    22    34    57         -60.61315
  472 Torsion                 34    22    33    52        -177.34273
  473 Torsion                 34    22    33    53          62.13272
  474 Torsion                 34    22    33    54         -57.61958
  475 Torsion                 35    22    33    52         -59.31369
  476 Torsion                 35    22    33    53        -179.83824
  477 Torsion                 35    22    33    54          60.40946
  478 Torsion                 35    22    34    55          62.40013
  479 Torsion                 35    22    34    56         -58.21962
  480 Torsion                 35    22    34    57        -177.87006
  481 Torsion                 37    23    36    58          -0.01887
  482 Torsion                 38    24    39    62         179.07713
  483 Torsion                 38    24    39    63          58.46593
  484 Torsion                 38    24    39    64         -61.30229
  485 Torsion                 39    24    38    59        -179.15305
  486 Torsion                 39    24    38    60          60.86420
  487 Torsion                 39    24    38    61         -58.56551
  488 Torsion                 40    24    38    59         -61.68948
  489 Torsion                 40    24    38    60         178.32777
  490 Torsion                 40    24    38    61          58.89807
  491 Torsion                 40    24    39    62          61.19141
  492 Torsion                 40    24    39    63         -59.41979
  493 Torsion                 40    24    39    64        -179.18801
  494 Torsion                 41    25    36    58          -0.11222
  495 Torsion                 42    26    43    68         179.52913
  496 Torsion                 42    26    43    69          58.41617
  497 Torsion                 42    26    43    70         -60.90165
  498 Torsion                 43    26    42    65         175.47670
  499 Torsion                 43    26    42    66          55.10153
  500 Torsion                 43    26    42    67         -63.34659
  501 Torsion                 44    26    42    65         -66.46886
  502 Torsion                 44    26    42    66         173.15596
  503 Torsion                 44    26    42    67          54.70785
  504 Torsion                 44    26    43    68          62.16423
  505 Torsion                 44    26    43    69         -58.94873
  506 Torsion                 44    26    43    70        -178.26655
  507 Torsion                 71     1    77    76         163.80534
  508 Torsion                 71     1    77    78         -16.76926
  509 Torsion                 71     3     1    77        -116.47303
  510 Torsion                 71    83    84    86        -177.93081
  511 Torsion                 71    83    84    87           2.98129
  512 Torsion                 71    83    85    88         178.03237
  513 Torsion                 71    83    85    89          -3.16860
  514 Torsion                 72    73    76    77           0.09620
  515 Torsion                 72    73    76    79        -179.59236
  516 Torsion                 72    75    78    77           0.90065
  517 Torsion                 72    75    78    80        -179.16898
  518 Torsion                 73    72    75    74        -178.95793
  519 Torsion                 73    72    75    78           0.62797
  520 Torsion                 73    76    77    78           1.40376
  521 Torsion                 74    75    72    81           0.52156
  522 Torsion                 74    75    78    77        -179.51020
  523 Torsion                 74    75    78    80           0.42017
  524 Torsion                 75    72    73    76          -1.12275
  525 Torsion                 75    72    73    82         179.30192
  526 Torsion                 75    78    77    76          -1.89496
  527 Torsion                 76    73    72    81         179.39824
  528 Torsion                 76    77    78    80         178.17635
  529 Torsion                 77     1    71    83         -21.59563
  530 Torsion                 77     1    71    94        -158.42958
  531 Torsion                 77    76    73    82         179.67431
  532 Torsion                 78    75    72    81        -179.89254
  533 Torsion                 78    77    76    79        -178.89761
  534 Torsion                 79    76    73    82          -0.01425
  535 Torsion                 81    72    73    82          -0.17709
  536 Torsion                 83    71    94    95         -66.67500
  537 Torsion                 83    71    94    96          53.09631
  538 Torsion                 83    71    94    97         173.57013
  539 Torsion                 83    84    86    90           0.36259
  540 Torsion                 83    84    86    91        -179.65311
  541 Torsion                 83    85    88    90          -0.56037
  542 Torsion                 83    85    88    92         179.27617
  543 Torsion                 84    83    71    94          78.93038
  544 Torsion                 84    83    85    88           1.24919
  545 Torsion                 84    83    85    89        -179.95178
  546 Torsion                 84    86    90    88           0.31727
  547 Torsion                 84    86    90    93        -179.91902
  548 Torsion                 85    83    71    94         -97.87748
  549 Torsion                 85    83    84    86          -1.15152
  550 Torsion                 85    83    84    87         179.76059
  551 Torsion                 85    88    90    86          -0.21773
  552 Torsion                 85    88    90    93        -179.98115
  553 Torsion                 86    90    88    92         179.94655
  554 Torsion                 87    84    86    90         179.43645
  555 Torsion                 87    84    86    91          -0.57925
  556 Torsion                 88    90    86    91        -179.66698
  557 Torsion                 89    85    88    90        -179.33281
  558 Torsion                 89    85    88    92           0.50373
  559 Torsion                 91    86    90    93           0.09674
  560 Torsion                 92    88    90    93           0.18312


            XYZ format geometry
            -------------------
    97
 geometry
 C                     1.80736907     0.47109703    -1.53133685
 O                     1.51616233     1.23608067    -2.46039864
 Ni                    0.18931388    -0.35142152    -0.61984086
 C                    -1.31987280     0.25077487     0.29363920
 N                    -2.23023005    -0.61694079     0.78958164
 N                    -1.80484173     1.48300246     0.51842968
 C                    -3.34616126     0.02304105     1.48279467
 C                    -2.00343570    -2.02401659     0.79769931
 C                    -3.15961673     1.48725378     1.07440774
 C                    -1.16334714     2.68780242     0.09799473
 H                    -4.30135071    -0.39015665     1.15522382
 H                    -3.26447125    -0.12268761     2.56511977
 C                    -2.50717753    -2.79390078    -0.25576028
 C                    -1.26469659    -2.59370624     1.84032904
 H                    -3.87903159     1.79735174     0.31064927
 H                    -3.23370828     2.17906889     1.91428347
 C                    -0.44561523     3.42119757     1.04647448
 C                    -1.28402232     3.10795714    -1.23057364
 C                    -2.21545327    -4.15371141    -0.27323387
 C                    -3.34879914    -2.18268836    -1.35794392
 C                    -1.00288410    -3.95887037     1.78913022
 C                    -0.76461829    -1.76954248     3.01021029
 C                     0.19421140     4.58293282     0.62965526
 C                    -0.34749777     2.98089440     2.49384738
 C                    -0.62669459     4.27406364    -1.60479209
 C                    -2.15127791     2.36698404    -2.22966117
 C                    -1.46280891    -4.73186055     0.73535865
 H                    -2.57845799    -4.76780987    -1.08866916
 C                    -4.74303318    -2.81213989    -1.39362391
 C                    -2.65475388    -2.29209981    -2.71548265
 H                    -3.46331091    -1.11994317    -1.13680841
 H                    -0.42644468    -4.42251595     2.58097440
 C                     0.75716419    -1.83130710     3.13480037
 C                    -1.44634772    -2.21196943     4.30750867
 H                    -1.02696079    -0.72632825     2.82494979
 C                     0.11156469     5.00229292    -0.68682983
 H                     0.77113448     5.16081311     1.34191967
 C                    -0.92646383     4.03694391     3.43756025
 C                     1.09459103     2.63854725     2.86219031
 H                    -0.93649560     2.06823725     2.60780243
 H                    -0.68869760     4.61503524    -2.63043445
 C                    -1.44676977     2.13552539    -3.56589020
 C                    -3.46646678     3.12492613    -2.44198765
 H                    -2.38174479     1.38563785    -1.80897516
 H                    -1.23973798    -5.79104579     0.70362491
 H                    -5.24021500    -2.72930249    -0.42530341
 H                    -4.69052774    -3.87231215    -1.64953230
 H                    -5.36515913    -2.31907639    -2.14270345
 H                    -1.68345720    -1.79523259    -2.68897979
 H                    -3.26112303    -1.82481435    -3.49411066
 H                    -2.49837273    -3.33671874    -2.99491118
 H                     1.22909957    -1.46920814     2.22046155
 H                     1.10061455    -2.85190070     3.31967477
 H                     1.09606131    -1.20870566     3.96544532
 H                    -2.53374332    -2.16267516     4.22217732
 H                    -1.13715185    -1.57775408     5.14026012
 H                    -1.18168876    -3.24236067     4.55472836
 H                     0.62238960     5.90457891    -0.99949038
 H                    -1.96242783     4.27336369     3.18632388
 H                    -0.35418597     4.96527990     3.38563550
 H                    -0.89439095     3.68449685     4.47048177
 H                     1.49360869     1.87410670     2.19524891
 H                     1.15324410     2.27140835     3.88979421
 H                     1.73839606     3.51725939     2.78265684
 H                    -0.47405266     1.66830243    -3.41722820
 H                    -1.29368510     3.07605345    -4.10053897
 H                    -2.06383219     1.49844951    -4.20413485
 H                    -3.99584786     3.29705898    -1.50259253
 H                    -4.12583105     2.57093462    -3.11351104
 H                    -3.27156180     4.10143017    -2.89161007
 N                     1.62489761    -0.96471239    -1.74157571
 C                     4.35344454     2.13875340     1.51465725
 C                     3.89484213     2.88477403     0.43831530
 H                     4.29701448     0.22453350     2.48385739
 C                     3.96037664     0.81383275     1.63978232
 C                     3.07216259     2.30493570    -0.51319239
 C                     2.68751403     0.96658552    -0.40938083
 C                     3.12820779     0.23266794     0.69422625
 H                     2.71144922     2.87038069    -1.36130987
 H                     2.83184520    -0.79583130     0.83071611
 H                     5.00447782     2.58750455     2.25429120
 H                     4.18365373     3.92335558     0.33292580
 C                     2.55640499    -1.95193868    -1.25433313
 C                     3.88047094    -1.91216845    -1.66675981
 C                     2.10582267    -2.97215140    -0.42985459
 C                     4.76507565    -2.88725936    -1.23147713
 H                     4.21203158    -1.10895659    -2.31402833
 C                     2.99511910    -3.94483283     0.00504259
 H                     1.06490049    -2.98159458    -0.12144593
 C                     4.32495771    -3.90268623    -0.39275490
 H                     5.79954486    -2.85428181    -1.54788449
 H                     2.64741006    -4.73533006     0.65828797
 H                     5.01745809    -4.66195440    -0.05319807
 C                     1.18647846    -1.30931141    -3.10909272
 H                     2.02560403    -1.22847940    -3.80467294
 H                     0.81748490    -2.33382285    -3.09795068
 H                     0.40359630    -0.62786367    -3.42378260

 ==============================================================================
                                internuclear distances
 ------------------------------------------------------------------------------
       center one      |      center two      | atomic units |  angstroms
 ------------------------------------------------------------------------------
    2 O                |   1 C                |     2.33987  |     1.23821
    3 Ni               |   1 C                |     3.83827  |     2.03112
    4 C                |   3 Ni               |     3.52257  |     1.86406
    5 N                |   4 C                |     2.55472  |     1.35190
    6 N                |   4 C                |     2.53823  |     1.34317
    7 C                |   5 N                |     2.76147  |     1.46131
    8 C                |   5 N                |     2.69335  |     1.42526
    9 C                |   6 N                |     2.76736  |     1.46443
    9 C                |   7 C                |     2.89412  |     1.53150
   10 C                |   6 N                |     2.69895  |     1.42822
   11 H                |   7 C                |     2.06181  |     1.09106
   12 H                |   7 C                |     2.06952  |     1.09514
   13 C                |   8 C                |     2.64309  |     1.39866
   14 C                |   8 C                |     2.64383  |     1.39906
   15 H                |   9 C                |     2.06754  |     1.09410
   16 H                |   9 C                |     2.06100  |     1.09064
   17 C                |  10 C                |     2.64063  |     1.39736
   18 C                |  10 C                |     2.64304  |     1.39864
   19 C                |  13 C                |     2.62835  |     1.39086
   20 C                |  13 C                |     2.86386  |     1.51549
   21 C                |  14 C                |     2.62858  |     1.39099
   22 C                |  14 C                |     2.86463  |     1.51590
   23 C                |  17 C                |     2.62716  |     1.39023
   24 C                |  17 C                |     2.86490  |     1.51604
   25 C                |  18 C                |     2.62660  |     1.38994
   26 C                |  18 C                |     2.86551  |     1.51636
   27 C                |  19 C                |     2.61711  |     1.38491
   27 C                |  21 C                |     2.61813  |     1.38545
   28 H                |  19 C                |     2.04739  |     1.08343
   29 C                |  20 C                |     2.89157  |     1.53015
   30 C                |  20 C                |     2.88861  |     1.52859
   31 H                |  20 C                |     2.06270  |     1.09153
   32 H                |  21 C                |     2.04777  |     1.08364
   33 C                |  22 C                |     2.88773  |     1.52812
   34 C                |  22 C                |     2.89287  |     1.53084
   35 H                |  22 C                |     2.06270  |     1.09153
   36 C                |  23 C                |     2.61563  |     1.38413
   36 C                |  25 C                |     2.61712  |     1.38492
   37 H                |  23 C                |     2.04764  |     1.08356
   38 C                |  24 C                |     2.89136  |     1.53004
   39 C                |  24 C                |     2.88609  |     1.52725
   40 H                |  24 C                |     2.06391  |     1.09218
   41 H                |  25 C                |     2.04584  |     1.08261
   42 C                |  26 C                |     2.88789  |     1.52821
   43 C                |  26 C                |     2.89645  |     1.53274
   44 H                |  26 C                |     2.06416  |     1.09231
   45 H                |  27 C                |     2.04636  |     1.08289
   46 H                |  29 C                |     2.06292  |     1.09165
   47 H                |  29 C                |     2.06336  |     1.09188
   48 H                |  29 C                |     2.06255  |     1.09145
   49 H                |  30 C                |     2.06231  |     1.09133
   50 H                |  30 C                |     2.06344  |     1.09193
   51 H                |  30 C                |     2.06471  |     1.09260
   52 H                |  33 C                |     2.06132  |     1.09080
   53 H                |  33 C                |     2.06469  |     1.09259
   54 H                |  33 C                |     2.06357  |     1.09200
   55 H                |  34 C                |     2.06330  |     1.09185
   56 H                |  34 C                |     2.06258  |     1.09147
   57 H                |  34 C                |     2.06393  |     1.09218
   58 H                |  36 C                |     2.04651  |     1.08297
   59 H                |  38 C                |     2.06338  |     1.09190
   60 H                |  38 C                |     2.06318  |     1.09179
   61 H                |  38 C                |     2.06333  |     1.09187
   62 H                |  39 C                |     2.06006  |     1.09014
   63 H                |  39 C                |     2.06508  |     1.09280
   64 H                |  39 C                |     2.06400  |     1.09222
   65 H                |  42 C                |     2.05848  |     1.08930
   66 H                |  42 C                |     2.06480  |     1.09265
   67 H                |  42 C                |     2.06490  |     1.09270
   68 H                |  43 C                |     2.06347  |     1.09194
   69 H                |  43 C                |     2.06371  |     1.09207
   70 H                |  43 C                |     2.06466  |     1.09257
   71 N                |   1 C                |     2.76381  |     1.46255
   71 N                |   3 Ni               |     3.63266  |     1.92232
   73 C                |  72 C                |     2.62214  |     1.38758
   75 C                |  72 C                |     2.62228  |     1.38765
   75 C                |  74 H                |     2.04672  |     1.08308
   76 C                |  73 C                |     2.61738  |     1.38506
   77 C                |   1 C                |     2.85277  |     1.50962
   77 C                |  76 C                |     2.63880  |     1.39639
   78 C                |  75 C                |     2.62143  |     1.38720
   78 C                |  77 C                |     2.63940  |     1.39671
   79 H                |  76 C                |     2.04330  |     1.08127
   80 H                |  78 C                |     2.03904  |     1.07901
   81 H                |  72 C                |     2.04604  |     1.08272
   82 H                |  73 C                |     2.04682  |     1.08313
   83 C                |  71 N                |     2.72522  |     1.44213
   84 C                |  83 C                |     2.62177  |     1.38738
   85 C                |  83 C                |     2.62095  |     1.38695
   86 C                |  84 C                |     2.62039  |     1.38665
   87 H                |  84 C                |     2.04758  |     1.08353
   88 C                |  85 C                |     2.62263  |     1.38784
   89 H                |  85 C                |     2.05166  |     1.08569
   90 C                |  86 C                |     2.62410  |     1.38861
   90 C                |  88 C                |     2.62426  |     1.38870
   91 H                |  86 C                |     2.04521  |     1.08228
   92 H                |  88 C                |     2.04625  |     1.08283
   93 H                |  90 C                |     2.04522  |     1.08229
   94 C                |  71 N                |     2.79083  |     1.47684
   95 H                |  94 C                |     2.06534  |     1.09293
   96 H                |  94 C                |     2.05790  |     1.08899
   97 H                |  94 C                |     2.04955  |     1.08458
 ------------------------------------------------------------------------------
                         number of included internuclear distances:        102
 ==============================================================================



 ==============================================================================
                                 internuclear angles
 ------------------------------------------------------------------------------
        center 1       |       center 2       |       center 3       |  degrees
 ------------------------------------------------------------------------------
    2 O                |   1 C                |   3 Ni               |   113.55
    2 O                |   1 C                |  71 N                |   117.99
    2 O                |   1 C                |  77 C                |   119.47
    1 C                |  71 N                |   3 Ni               |    72.31
    3 Ni               |   1 C                |  77 C                |   105.30
   71 N                |   1 C                |  77 C                |   120.12
    1 C                |   3 Ni               |   4 C                |   137.23
    3 Ni               |  71 N                |   1 C                |    72.31
    4 C                |   3 Ni               |  71 N                |   173.54
    3 Ni               |   4 C                |   5 N                |   121.17
    3 Ni               |   4 C                |   6 N                |   132.12
    5 N                |   4 C                |   6 N                |   106.52
    4 C                |   5 N                |   7 C                |   114.03
    4 C                |   5 N                |   8 C                |   121.91
    7 C                |   5 N                |   8 C                |   123.45
    4 C                |   6 N                |   9 C                |   113.59
    4 C                |   6 N                |  10 C                |   124.23
    9 C                |   6 N                |  10 C                |   121.66
    5 N                |   7 C                |   9 C                |   101.49
    5 N                |   7 C                |  11 H                |   111.12
    5 N                |   7 C                |  12 H                |   110.71
    9 C                |   7 C                |  11 H                |   112.87
    9 C                |   7 C                |  12 H                |   112.44
   11 H                |   7 C                |  12 H                |   108.16
    5 N                |   8 C                |  13 C                |   118.80
    5 N                |   8 C                |  14 C                |   119.36
   13 C                |   8 C                |  14 C                |   121.83
    6 N                |   9 C                |   7 C                |   102.19
    6 N                |   9 C                |  15 H                |   110.13
    6 N                |   9 C                |  16 H                |   110.92
    7 C                |   9 C                |  15 H                |   112.15
    7 C                |   9 C                |  16 H                |   113.13
   15 H                |   9 C                |  16 H                |   108.25
    6 N                |  10 C                |  17 C                |   118.27
    6 N                |  10 C                |  18 C                |   119.62
   17 C                |  10 C                |  18 C                |   122.10
    8 C                |  13 C                |  19 C                |   118.17
    8 C                |  13 C                |  20 C                |   121.72
   19 C                |  13 C                |  20 C                |   120.11
    8 C                |  14 C                |  21 C                |   118.14
    8 C                |  14 C                |  22 C                |   121.87
   21 C                |  14 C                |  22 C                |   119.99
   10 C                |  17 C                |  23 C                |   118.13
   10 C                |  17 C                |  24 C                |   121.93
   23 C                |  17 C                |  24 C                |   119.94
   10 C                |  18 C                |  25 C                |   117.84
   10 C                |  18 C                |  26 C                |   121.90
   25 C                |  18 C                |  26 C                |   120.20
   13 C                |  19 C                |  27 C                |   120.86
   13 C                |  19 C                |  28 H                |   119.56
   27 C                |  19 C                |  28 H                |   119.58
   13 C                |  20 C                |  29 C                |   110.92
   13 C                |  20 C                |  30 C                |   111.40
   13 C                |  20 C                |  31 H                |   107.67
   29 C                |  20 C                |  30 C                |   111.32
   29 C                |  20 C                |  31 H                |   108.04
   30 C                |  20 C                |  31 H                |   107.29
   14 C                |  21 C                |  27 C                |   120.87
   14 C                |  21 C                |  32 H                |   119.55
   27 C                |  21 C                |  32 H                |   119.58
   14 C                |  22 C                |  33 C                |   111.68
   14 C                |  22 C                |  34 C                |   110.49
   14 C                |  22 C                |  35 H                |   108.02
   33 C                |  22 C                |  34 C                |   111.27
   33 C                |  22 C                |  35 H                |   106.97
   34 C                |  22 C                |  35 H                |   108.24
   17 C                |  23 C                |  36 C                |   120.72
   17 C                |  23 C                |  37 H                |   119.58
   36 C                |  23 C                |  37 H                |   119.70
   17 C                |  24 C                |  38 C                |   111.34
   17 C                |  24 C                |  39 C                |   110.88
   17 C                |  24 C                |  40 H                |   107.90
   38 C                |  24 C                |  39 C                |   111.30
   38 C                |  24 C                |  40 H                |   107.96
   39 C                |  24 C                |  40 H                |   107.26
   18 C                |  25 C                |  36 C                |   120.98
   18 C                |  25 C                |  41 H                |   119.49
   36 C                |  25 C                |  41 H                |   119.53
   18 C                |  26 C                |  42 C                |   112.73
   18 C                |  26 C                |  43 C                |   109.90
   18 C                |  26 C                |  44 H                |   107.81
   42 C                |  26 C                |  43 C                |   110.45
   42 C                |  26 C                |  44 H                |   107.33
   43 C                |  26 C                |  44 H                |   108.46
   19 C                |  27 C                |  21 C                |   120.09
   19 C                |  27 C                |  45 H                |   119.93
   21 C                |  27 C                |  45 H                |   119.98
   20 C                |  29 C                |  46 H                |   111.29
   20 C                |  29 C                |  47 H                |   111.17
   20 C                |  29 C                |  48 H                |   110.46
   46 H                |  29 C                |  47 H                |   107.67
   46 H                |  29 C                |  48 H                |   108.35
   47 H                |  29 C                |  48 H                |   107.77
   20 C                |  30 C                |  49 H                |   110.48
   20 C                |  30 C                |  50 H                |   110.52
   20 C                |  30 C                |  51 H                |   111.13
   49 H                |  30 C                |  50 H                |   108.46
   49 H                |  30 C                |  51 H                |   108.31
   50 H                |  30 C                |  51 H                |   107.83
   22 C                |  33 C                |  52 H                |   110.43
   22 C                |  33 C                |  53 H                |   111.38
   22 C                |  33 C                |  54 H                |   110.37
   52 H                |  33 C                |  53 H                |   108.42
   52 H                |  33 C                |  54 H                |   108.30
   53 H                |  33 C                |  54 H                |   107.84
   22 C                |  34 C                |  55 H                |   111.36
   22 C                |  34 C                |  56 H                |   110.64
   22 C                |  34 C                |  57 H                |   110.89
   55 H                |  34 C                |  56 H                |   108.39
   55 H                |  34 C                |  57 H                |   107.55
   56 H                |  34 C                |  57 H                |   107.87
   23 C                |  36 C                |  25 C                |   120.20
   23 C                |  36 C                |  58 H                |   119.92
   25 C                |  36 C                |  58 H                |   119.88
   24 C                |  38 C                |  59 H                |   111.50
   24 C                |  38 C                |  60 H                |   111.05
   24 C                |  38 C                |  61 H                |   110.46
   59 H                |  38 C                |  60 H                |   107.59
   59 H                |  38 C                |  61 H                |   108.39
   60 H                |  38 C                |  61 H                |   107.70
   24 C                |  39 C                |  62 H                |   110.81
   24 C                |  39 C                |  63 H                |   110.66
   24 C                |  39 C                |  64 H                |   111.02
   62 H                |  39 C                |  63 H                |   108.67
   62 H                |  39 C                |  64 H                |   107.69
   63 H                |  39 C                |  64 H                |   107.89
   26 C                |  42 C                |  65 H                |   110.93
   26 C                |  42 C                |  66 H                |   111.23
   26 C                |  42 C                |  67 H                |   109.80
   65 H                |  42 C                |  66 H                |   108.11
   65 H                |  42 C                |  67 H                |   109.51
   66 H                |  42 C                |  67 H                |   107.17
   26 C                |  43 C                |  68 H                |   112.01
   26 C                |  43 C                |  69 H                |   110.63
   26 C                |  43 C                |  70 H                |   110.24
   68 H                |  43 C                |  69 H                |   108.44
   68 H                |  43 C                |  70 H                |   107.44
   69 H                |  43 C                |  70 H                |   107.94
    1 C                |  71 N                |   3 Ni               |    72.31
    1 C                |  71 N                |  83 C                |   122.88
    1 C                |  71 N                |  94 C                |   113.53
    3 Ni               |  71 N                |  83 C                |   120.24
    3 Ni               |  71 N                |  94 C                |   113.15
   83 C                |  71 N                |  94 C                |   110.17
   73 C                |  72 C                |  75 C                |   119.32
   73 C                |  72 C                |  81 H                |   120.38
   75 C                |  72 C                |  81 H                |   120.30
   72 C                |  73 C                |  76 C                |   120.27
   72 C                |  73 C                |  82 H                |   120.19
   76 C                |  73 C                |  82 H                |   119.54
   72 C                |  75 C                |  74 H                |   120.11
   72 C                |  75 C                |  78 C                |   120.56
   74 H                |  75 C                |  78 C                |   119.32
   73 C                |  76 C                |  77 C                |   120.92
   73 C                |  76 C                |  79 H                |   121.20
   77 C                |  76 C                |  79 H                |   117.88
    1 C                |  77 C                |  76 C                |   114.83
    1 C                |  77 C                |  78 C                |   126.78
   76 C                |  77 C                |  78 C                |   118.39
   75 C                |  78 C                |  77 C                |   120.51
   75 C                |  78 C                |  80 H                |   118.55
   77 C                |  78 C                |  80 H                |   120.94
   71 N                |  83 C                |  84 C                |   119.76
   71 N                |  83 C                |  85 C                |   119.64
   84 C                |  83 C                |  85 C                |   120.52
   83 C                |  84 C                |  86 C                |   119.69
   83 C                |  84 C                |  87 H                |   119.40
   86 C                |  84 C                |  87 H                |   120.90
   83 C                |  85 C                |  88 C                |   119.58
   83 C                |  85 C                |  89 H                |   119.13
   88 C                |  85 C                |  89 H                |   121.28
   84 C                |  86 C                |  90 C                |   120.11
   84 C                |  86 C                |  91 H                |   119.77
   90 C                |  86 C                |  91 H                |   120.12
   85 C                |  88 C                |  90 C                |   120.17
   85 C                |  88 C                |  92 H                |   119.67
   90 C                |  88 C                |  92 H                |   120.16
   86 C                |  90 C                |  88 C                |   119.92
   86 C                |  90 C                |  93 H                |   119.98
   88 C                |  90 C                |  93 H                |   120.10
   71 N                |  94 C                |  95 H                |   110.13
[...]
  ----- ------------  ---------------      ----- ------------  ---------------
     6      2.349850   1 C  s                 2      1.934330   1 C  s         
     3     -1.517529   1 C  s                 5     -1.285975   1 C  s         
     4      1.172607   1 C  s                 1     -1.131994   1 C  s         
   710      0.905846  77 C  pz              217      0.850344  17 C  s         
   296      0.819114  22 C  s               322     -0.816078  24 C  s         

 Vector  847  Occ=0.000000D+00  E= 6.330144D+01
              MO Center=  4.1D-01,  2.9D-01, -5.5D-01, r^2= 1.6D+01
   Bfn.  Coefficient  Atom+Function         Bfn.  Coefficient  Atom+Function  
  ----- ------------  ---------------      ----- ------------  ---------------
   352      1.291697  26 C  s               356      1.232149  26 C  s         
   697     -1.144368  77 C  s               701     -1.027565  77 C  s         
   262     -1.002316  20 C  s               266     -1.007131  20 C  s         
   353     -1.006783  26 C  s               773      0.971330  85 C  s         
   698      0.892176  77 C  s               263      0.782642  20 C  s         

 Vector  848  Occ=0.000000D+00  E= 6.331097D+01
              MO Center=  9.9D-01, -1.1D+00, -1.1D-01, r^2= 1.5D+01
   Bfn.  Coefficient  Atom+Function         Bfn.  Coefficient  Atom+Function  
  ----- ------------  ---------------      ----- ------------  ---------------
   769      1.313838  85 C  s               773      1.280565  85 C  s         
   770     -1.023663  85 C  s               142      0.932724   8 C  py        
   758     -0.922795  84 C  s               292      0.852827  22 C  s         
   784      0.850704  86 C  s               754     -0.840777  84 C  s         
   326     -0.825127  24 C  s               296      0.804334  22 C  s         

 Vector  849  Occ=0.000000D+00  E= 6.332596D+01
              MO Center=  2.1D+00,  7.1D-01,  2.2D-01, r^2= 9.7D+00
   Bfn.  Coefficient  Atom+Function         Bfn.  Coefficient  Atom+Function  
  ----- ------------  ---------------      ----- ------------  ---------------
   701      1.533695  77 C  s               697      1.497670  77 C  s         
   698     -1.168489  77 C  s               716     -1.095156  78 C  s         
   712     -1.033543  78 C  s               649     -1.015599  73 C  s         
   700     -0.918863  77 C  s               686      0.888655  76 C  s         
   696     -0.877942  77 C  s               699      0.877895  77 C  s         

 Vector  850  Occ=0.000000D+00  E= 6.332938D+01
              MO Center=  2.9D+00,  8.8D-01,  2.1D-01, r^2= 3.9D+00
   Bfn.  Coefficient  Atom+Function         Bfn.  Coefficient  Atom+Function  
  ----- ------------  ---------------      ----- ------------  ---------------
   716      1.874207  78 C  s               712      1.749079  78 C  s         
   682     -1.491545  76 C  s               686     -1.393728  76 C  s         
   713     -1.365799  78 C  s               683      1.158546  76 C  s         
   715     -1.087483  78 C  s               710     -1.047097  77 C  pz        
   711     -1.025293  78 C  s               714      1.028467  78 C  s         

 Vector  851  Occ=0.000000D+00  E= 6.340328D+01
              MO Center= -1.6D+00, -2.1D+00,  8.6D-01, r^2= 6.7D+00
   Bfn.  Coefficient  Atom+Function         Bfn.  Coefficient  Atom+Function  
  ----- ------------  ---------------      ----- ------------  ---------------
   185      2.176482  13 C  s               200     -1.944130  14 C  s         
   143      1.929325   8 C  pz              181      1.659757  13 C  s         
   196     -1.660301  14 C  s               209      1.372588  14 C  pz        
   182     -1.305412  13 C  s               194      1.308989  13 C  pz        
   197      1.307362  14 C  s               296     -1.259893  22 C  s         

 Vector  852  Occ=0.000000D+00  E= 6.341960D+01
              MO Center= -1.6D+00, -2.3D+00,  6.5D-01, r^2= 7.4D+00
   Bfn.  Coefficient  Atom+Function         Bfn.  Coefficient  Atom+Function  
  ----- ------------  ---------------      ----- ------------  ---------------
   134      2.889268   8 C  s               130      1.847118   8 C  s         
   142     -1.593551   8 C  py              131     -1.456016   8 C  s         
   281     -1.309863  21 C  s               133     -1.288904   8 C  s         
   251     -1.204084  19 C  s               247     -1.169063  19 C  s         
   277     -1.174547  21 C  s               132      1.140922   8 C  s         

 Vector  853  Occ=0.000000D+00  E= 6.342497D+01
              MO Center= -1.1D+00,  2.6D+00, -3.2D-01, r^2= 6.8D+00
   Bfn.  Coefficient  Atom+Function         Bfn.  Coefficient  Atom+Function  
  ----- ------------  ---------------      ----- ------------  ---------------
   173      2.150289  10 C  pz              236      2.060761  18 C  s         
   245      1.921499  18 C  pz              221     -1.788273  17 C  s         
   232      1.634658  18 C  s               217     -1.462844  17 C  s         
   356      1.379884  26 C  s               233     -1.287115  18 C  s         
   218      1.152040  17 C  s               235     -1.089205  18 C  s         

 Vector  854  Occ=0.000000D+00  E= 6.344386D+01
              MO Center= -7.4D-01,  2.8D+00, -8.7D-02, r^2= 6.6D+00
   Bfn.  Coefficient  Atom+Function         Bfn.  Coefficient  Atom+Function  
  ----- ------------  ---------------      ----- ------------  ---------------
   164      2.966679  10 C  s               160      1.804666  10 C  s         
   161     -1.424034  10 C  s               230      1.334342  17 C  pz        
   221     -1.309700  17 C  s               163     -1.282035  10 C  s         
   172      1.265528  10 C  py              311     -1.219004  23 C  s         
   341     -1.168167  25 C  s               162      1.122187  10 C  s         

 Vector  855  Occ=0.000000D+00  E= 6.355233D+01
              MO Center=  3.2D+00, -2.7D+00, -7.9D-01, r^2= 3.3D+00
   Bfn.  Coefficient  Atom+Function         Bfn.  Coefficient  Atom+Function  
  ----- ------------  ---------------      ----- ------------  ---------------
   743      2.837990  83 C  s               773     -2.588162  85 C  s         
   806      2.342322  88 C  s               788      2.310790  86 C  s         
   758     -2.285320  84 C  s               824     -2.256553  90 C  s         
   780     -1.540314  85 C  px              739      1.389918  83 C  s         
   769     -1.290236  85 C  s               795     -1.202345  86 C  px        

 Vector  856  Occ=0.000000D+00  E= 6.357829D+01
              MO Center=  3.3D+00,  1.2D+00,  4.0D-01, r^2= 3.4D+00
   Bfn.  Coefficient  Atom+Function         Bfn.  Coefficient  Atom+Function  
  ----- ------------  ---------------      ----- ------------  ---------------
   716     -2.851643  78 C  s               701      2.759300  77 C  s         
   671      2.487470  75 C  s               653      2.349474  73 C  s         
   638     -2.315139  72 C  s               686     -2.323519  76 C  s         
   724     -1.868157  78 C  py              710      1.583346  77 C  pz        
   697      1.369510  77 C  s               712     -1.283599  78 C  s         

 Vector  857  Occ=0.000000D+00  E= 6.359194D+01
              MO Center= -1.7D+00, -3.0D+00,  7.8D-01, r^2= 3.5D+00
   Bfn.  Coefficient  Atom+Function         Bfn.  Coefficient  Atom+Function  
  ----- ------------  ---------------      ----- ------------  ---------------
   134      3.436686   8 C  s               200     -2.990634  14 C  s         
   185     -2.892553  13 C  s               281      2.649300  21 C  s         
   251      2.623470  19 C  s               371     -2.433504  27 C  s         
   142     -2.230200   8 C  py              209      1.679436  14 C  pz        
   194     -1.486514  13 C  pz              130      1.405597   8 C  s         

 Vector  858  Occ=0.000000D+00  E= 6.360936D+01
              MO Center= -7.0D-01,  3.6D+00, -2.4D-01, r^2= 2.4D+00
   Bfn.  Coefficient  Atom+Function         Bfn.  Coefficient  Atom+Function  
  ----- ------------  ---------------      ----- ------------  ---------------
   164      3.618089  10 C  s               236     -3.186725  18 C  s         
   221     -2.986213  17 C  s               311      2.787836  23 C  s         
   341      2.719801  25 C  s               458     -2.566490  36 C  s         
   230      2.126836  17 C  pz              172      2.024042  10 C  py        
   245     -1.580493  18 C  pz              350      1.571630  25 C  pz        

 Vector  859  Occ=0.000000D+00  E= 8.882012D+01
              MO Center= -1.6D+00, -2.4D-02,  3.6D-01, r^2= 3.5D+00
   Bfn.  Coefficient  Atom+Function         Bfn.  Coefficient  Atom+Function  
  ----- ------------  ---------------      ----- ------------  ---------------
    85      2.226675   5 N  s                86     -1.733408   5 N  s         
   142     -1.713637   8 C  py              100     -1.650757   6 N  s         
    89      1.497960   5 N  s                84      1.308070   5 N  s         
   101      1.284852   6 N  s                87      1.221955   5 N  s         
   172     -1.192021  10 C  py               88     -1.169740   5 N  s         

 Vector  860  Occ=0.000000D+00  E= 8.884309D+01
              MO Center=  9.7D-01, -5.5D-01, -1.3D+00, r^2= 3.6D+00
   Bfn.  Coefficient  Atom+Function         Bfn.  Coefficient  Atom+Function  
  ----- ------------  ---------------      ----- ------------  ---------------
   619      2.691994  71 N  s               620     -2.099267  71 N  s         
   623      1.948784  71 N  s               618      1.580437  71 N  s         
   621      1.493226  71 N  s               622     -1.456986  71 N  s         
   100     -1.221591   6 N  s               101      0.952183   6 N  s         
   751     -0.956149  83 C  py              104     -0.891694   6 N  s         

 Vector  861  Occ=0.000000D+00  E= 8.887874D+01
              MO Center= -1.8D+00,  4.7D-01,  5.2D-01, r^2= 2.2D+00
   Bfn.  Coefficient  Atom+Function         Bfn.  Coefficient  Atom+Function  
  ----- ------------  ---------------      ----- ------------  ---------------
   100      2.171498   6 N  s                85      1.944286   5 N  s         
   101     -1.696204   6 N  s               104      1.559207   6 N  s         
    86     -1.518886   5 N  s                89      1.371323   5 N  s         
   172      1.375526  10 C  py               99      1.274068   6 N  s         
   102      1.213563   6 N  s               103     -1.175765   6 N  s         

 Vector  862  Occ=0.000000D+00  E= 1.172045D+02
              MO Center=  1.9D-01, -3.5D-01, -6.2D-01, r^2= 3.7D-02
   Bfn.  Coefficient  Atom+Function         Bfn.  Coefficient  Atom+Function  
  ----- ------------  ---------------      ----- ------------  ---------------
    38      0.925733   3 Ni pz               36      0.511161   3 Ni px        
    41     -0.352907   3 Ni pz              671      0.320500  75 C  s         
   724     -0.308944  78 C  py              716     -0.245149  78 C  s         
   723     -0.236100  78 C  px              710      0.227412  77 C  pz        
   709      0.210698  77 C  py               39     -0.194862   3 Ni px        

 Vector  863  Occ=0.000000D+00  E= 1.172584D+02
              MO Center=  1.9D-01, -3.5D-01, -6.2D-01, r^2= 3.4D-02
   Bfn.  Coefficient  Atom+Function         Bfn.  Coefficient  Atom+Function  
  ----- ------------  ---------------      ----- ------------  ---------------
    37      1.054514   3 Ni py               40     -0.406001   3 Ni py        
     6     -0.398856   1 C  s               185      0.245503  13 C  s         
   142      0.234759   8 C  py              208     -0.235255  14 C  py        
   623      0.230393  71 N  s                14      0.227590   1 C  py        
   281     -0.227242  21 C  s                43      0.222235   3 Ni py        

 Vector  864  Occ=0.000000D+00  E= 1.173733D+02
              MO Center=  1.9D-01, -3.5D-01, -6.2D-01, r^2= 3.6D-02
   Bfn.  Coefficient  Atom+Function         Bfn.  Coefficient  Atom+Function  
  ----- ------------  ---------------      ----- ------------  ---------------
    36      0.925461   3 Ni px               38     -0.522464   3 Ni pz        
     6     -0.468189   1 C  s                39     -0.363780   3 Ni px        
   709     -0.314220  77 C  py               14      0.294676   1 C  py        
    35     -0.278850   3 Ni s                81      0.270836   4 C  px        
    82     -0.231093   4 C  py              750     -0.228050  83 C  px        

 Vector  865  Occ=0.000000D+00  E= 1.187324D+02
              MO Center=  1.5D+00,  1.2D+00, -2.5D+00, r^2= 5.9D-02
   Bfn.  Coefficient  Atom+Function         Bfn.  Coefficient  Atom+Function  
  ----- ------------  ---------------      ----- ------------  ---------------
    17      2.980042   2 O  s                18     -2.301942   2 O  s         
    16     -1.757432   2 O  s                19      1.519852   2 O  s         
    20     -1.266883   2 O  s                21      1.088150   2 O  s         
     6     -0.814695   1 C  s                14     -0.429862   1 C  py        
    15      0.404190   1 C  pz               13      0.289988   1 C  px        

 Vector  866  Occ=0.000000D+00  E= 6.704036D+02
              MO Center=  1.9D-01, -3.5D-01, -6.2D-01, r^2= 2.5D-02
   Bfn.  Coefficient  Atom+Function         Bfn.  Coefficient  Atom+Function  
  ----- ------------  ---------------      ----- ------------  ---------------
    32     28.711256   3 Ni s                33    -15.154002   3 Ni s         
    51     -7.281971   3 Ni dxx              54     -7.283631   3 Ni dyy       
    56     -7.283471   3 Ni dzz              31     -4.263494   3 Ni s         
    57      3.312096   3 Ni dxx              60      3.317979   3 Ni dyy       
    62      3.317369   3 Ni dzz              34      0.734486   3 Ni s         


 center of mass
 --------------
 x =   0.06705559 y =  -0.00895213 z =  -0.03151199

 moments of inertia (a.u.)
 ------------------
       24026.853411224642           0.000000000004           0.000000000001
           0.000000000004       21696.619090203123           0.000000000001
           0.000000000001           0.000000000001       29764.584683085421

     Multipole analysis of the density
     ---------------------------------

     L   x y z        total         alpha         beta         nuclear
     -   - - -        -----         -----         ----         -------
     0   0 0 0     -0.000000   -172.000000   -172.000000    344.000000

     1   1 0 0     -1.059437      1.259038      1.259038     -3.577514
     1   0 1 0     -1.021492     -3.831198     -3.831198      6.640904
     1   0 0 1      1.191486     -5.260904     -5.260904     11.713294

     2   2 0 0   -204.616783  -3905.682504  -3905.682504   7606.748226
     2   1 1 0     -3.406384     -6.684721     -6.684721      9.963057
     2   1 0 1      1.645422    -51.584330    -51.584330    104.814083
     2   0 2 0   -206.359784  -4534.965167  -4534.965167   8863.570550
     2   0 1 1      3.518882     -3.481696     -3.481696     10.482275
     2   0 0 2   -213.267769  -2426.610250  -2426.610250   4639.952732


 Task  times  cpu:     1803.7s     wall:     1803.7s


                                NWChem Input Module
                                -------------------


 Summary of allocated global arrays
-----------------------------------
  No active global arrays


MA_summarize_allocated_blocks: starting scan ...
heap block 'gridpts', handle 85, address 0x5717327065a0:
	type of elements:		double precision
	number of elements:		203677164
	address of client space:	0x571732706600
	index for client space:		32593307
	total number of bytes:		1629417416
MA_summarize_allocated_blocks: scan completed: 1 heap block, 0 stack blocks
MA usage statistics:

	allocation statistics:
					      heap	     stack
					      ----	     -----
	current number of blocks	         1	         0
	maximum number of blocks	        37	        58
	current total bytes		1629417416	         0
	maximum total bytes		1649038120	  56830056
	maximum total K-bytes		   1649039	     56831
	maximum total M-bytes		      1650	        57


                                     CITATION
                                     --------
                Please cite the following reference when publishing
                           results obtained with NWChem:

          E. Apra, E. J. Bylaska, W. A. de Jong, N. Govind, K. Kowalski,
       T. P. Straatsma, M. Valiev, H. J. J. van Dam, Y. Alexeev, J. Anchell,
       V. Anisimov, F. W. Aquino, R. Atta-Fynn, J. Autschbach, N. P. Bauman,
     J. C. Becca, D. E. Bernholdt, K. Bhaskaran-Nair, S. Bogatko, P. Borowski,
         J. Boschen, J. Brabec, A. Bruner, E. Cauet, Y. Chen, G. N. Chuev,
      C. J. Cramer, J. Daily, M. J. O. Deegan, T. H. Dunning Jr., M. Dupuis,
   K. G. Dyall, G. I. Fann, S. A. Fischer, A. Fonari, H. Fruchtl, L. Gagliardi,
      J. Garza, N. Gawande, S. Ghosh, K. Glaesemann, A. W. Gotz, J. Hammond,
       V. Helms, E. D. Hermes, K. Hirao, S. Hirata, M. Jacquelin, L. Jensen,
   B. G. Johnson, H. Jonsson, R. A. Kendall, M. Klemm, R. Kobayashi, V. Konkov,
      S. Krishnamoorthy, M. Krishnan, Z. Lin, R. D. Lins, R. J. Littlefield,
      A. J. Logsdail, K. Lopata, W. Ma, A. V. Marenich, J. Martin del Campo,
   D. Mejia-Rodriguez, J. E. Moore, J. M. Mullin, T. Nakajima, D. R. Nascimento,
    J. A. Nichols, P. J. Nichols, J. Nieplocha, A. Otero-de-la-Roza, B. Palmer,
    A. Panyala, T. Pirojsirikul, B. Peng, R. Peverati, J. Pittner, L. Pollack,
   R. M. Richard, P. Sadayappan, G. C. Schatz, W. A. Shelton, D. W. Silverstein,
   D. M. A. Smith, T. A. Soares, D. Song, M. Swart, H. L. Taylor, G. S. Thomas,
            V. Tipparaju, D. G. Truhlar, K. Tsemekhman, T. Van Voorhis,
      A. Vazquez-Mayagoitia, P. Verma, O. Villa, A. Vishnu, K. D. Vogiatzis,
        D. Wang, J. H. Weare, M. J. Williamson, T. L. Windus, K. Wolinski,
        A. T. Wong, Q. Wu, C. Yang, Q. Yu, M. Zacharias, Z. Zhang, Y. Zhao,
                                and R. J. Harrison
                        "NWChem: Past, present, and future
                         J. Chem. Phys. 152, 184102 (2020)
                               doi:10.1063/5.0004997

                                      AUTHORS
                                      -------
  E. Apra, E. J. Bylaska, N. Govind, K. Kowalski, M. Valiev, D. Mejia-Rodriguez,
       A. Kunitsa, N. P. Bauman, A. Panyala, W. A. de Jong, T. P. Straatsma,
   H. J. J. van Dam, D. Wang, T. L. Windus, J. Hammond, J. Autschbach, A. Woods,
    K. Bhaskaran-Nair, J. Brabec, K. Lopata, S. A. Fischer, S. Krishnamoorthy,
     M. Jacquelin, W. Ma, M. Klemm, O. Villa, Y. Chen, V. Anisimov, F. Aquino,
     S. Hirata, M. T. Hackler, E. Hermes, L. Jensen, J. E. Moore, J. C. Becca,
      V. Konjkov, T. Risthaus, M. Malagoli, A. Marenich, A. Otero-de-la-Roza,
        J. Mullin, P. Nichols, R. Peverati, J. Pittner, Y. Zhao, P.-D. Fan,
        A. Fonari, M. J. Williamson, R. J. Harrison, J. R. Rehr, M. Dupuis,
     D. Silverstein, D. M. A. Smith, J. Nieplocha, V. Tipparaju, M. Krishnan,
     B. E. Van Kuiken, A. Vazquez-Mayagoitia, M. Swart, Q. Wu, T. Van Voorhis,
     A. A. Auer, M. Nooijen, L. D. Crosby, E. Brown, G. Cisneros, G. I. Fann,
   H. Fruchtl, J. Garza, K. Hirao, R. A. Kendall, J. A. Nichols, K. Tsemekhman,
    K. Wolinski, J. Anchell, D. E. Bernholdt, P. Borowski, T. Clark, D. Clerc,
   H. Dachsel, M. J. O. Deegan, K. Dyall, D. Elwood, E. Glendening, M. Gutowski,
   A. C. Hess, J. Jaffe, B. G. Johnson, J. Ju, R. Kobayashi, R. Kutteh, Z. Lin,
   R. Littlefield, X. Long, B. Meng, T. Nakajima, S. Niu, L. Pollack, M. Rosing,
   K. Glaesemann, G. Sandrone, M. Stave, H. Taylor, G. Thomas, J. H. van Lenthe,
                               A. T. Wong, Z. Zhang.

 Total times  cpu:     1804.2s     wall:     1804.2s
