 argument  1 = nwchem.in
  NWChem w/ OpenMP: maximum threads =    1
                                         
                                         


             Northwest Computational Chemistry Package (NWChem) 7.2.3
             --------------------------------------------------------


                    Environmental Molecular Sciences Laboratory
                       Pacific Northwest National Laboratory
                                Richland, WA 99352

                              Copyright (c) 1994-2022
                       Pacific Northwest National Laboratory
                            Battelle Memorial Institute

             NWChem is an open-source computational chemistry package
                        distributed under the terms of the
                      Educational Community License (ECL) 2.0
             A copy of the license is included with this distribution
                              in the LICENSE.TXT file

                                  ACKNOWLEDGMENT
                                  --------------

            This software and its documentation were developed at the
            EMSL at Pacific Northwest National Laboratory, a multiprogram
            national laboratory, operated for the U.S. Department of Energy
            by Battelle under Contract Number DE-AC05-76RL01830. Support
            for this work was provided by the Department of Energy Office
            of Biological and Environmental Research, Office of Basic
            Energy Sciences, and the Office of Advanced Scientific Computing.


           Job information
           ---------------

    hostname        = fdd9c75fd50b
    program         = nwchem
    date            = Sun Jun 29 16:47:02 2025

    compiled        = Fri_May_02_22:05:35_2025
    source          = /opt/nwchem
    nwchem branch   = 7.2.3
    nwchem revision = N/A
    ga revision     = 5.9.1
    use scalapack   = T
    input           = nwchem.in
    prefix          = ni_singlepoint.
    data base       = ./ni_singlepoint.db
    status          = startup
    nproc           =        5
    time left       =     -1s



           Memory information
           ------------------

    heap     =    509724440 doubles =     3888.9 Mbytes
    stack    =    509724441 doubles =     3888.9 Mbytes
    global   =    291271111 doubles =     2222.2 Mbytes (distinct from heap & stack)
    total    =   1310719992 doubles =    10000.0 Mbytes
    verify   = yes
    hardfail = no 


           Directory information
           ---------------------

  0 permanent = .
  0 scratch   = .




                                NWChem Input Module
                                -------------------


                          Ni complex single-point energy
                          ------------------------------

 Scaling coordinates for geometry "geometry" by  1.889725989
 (inverse scale =  0.529177249)

 C1  symmetry detected

          ------
          auto-z
          ------
  no constraints, skipping    0.0000000000000000     
  no constraints, skipping    0.0000000000000000     


                             Geometry "geometry" -> ""
                             -------------------------

 Output coordinates in angstroms (scale by  1.889725989 to convert to a.u.)

  No.       Tag          Charge          X              Y              Z
 ---- ---------------- ---------- -------------- -------------- --------------
    1 C                    6.0000     1.43248136     0.72699139    -1.22443323
    2 O                    8.0000     1.31876996     1.40001560    -2.22171863
    3 Ni                  28.0000     0.11753246    -0.44787453    -0.74845950
    4 C                    6.0000    -1.20895078     0.41479127     0.30995092
    5 N                    7.0000    -2.13596379    -0.37031545     0.88850726
    6 N                    7.0000    -1.57120332     1.67925209     0.53673247
    7 C                    6.0000    -3.17504934     0.36145845     1.61456027
    8 C                    6.0000    -2.03683304    -1.79470439     0.89420247
    9 C                    6.0000    -2.86799478     1.80723199     1.21267095
   10 C                    6.0000    -0.86091026     2.83322808     0.08307789
   11 H                    1.0000    -4.16867079     0.03597452     1.30235360
   12 H                    1.0000    -3.08425802     0.19445803     2.69163013
   13 C                    6.0000    -2.61412037    -2.51359224    -0.15819520
   14 C                    6.0000    -1.36208183    -2.42506666     1.94625824
   15 H                    1.0000    -3.60950715     2.21263216     0.51953583
   16 H                    1.0000    -2.79379716     2.48287472     2.06518565
   17 C                    6.0000    -0.03413766     3.49651540     0.99375739
   18 C                    6.0000    -1.03406100     3.27065573    -1.23293553
   19 C                    6.0000    -2.46457590    -3.89661408    -0.15998504
   20 C                    6.0000    -3.40373423    -1.83088382    -1.25770870
   21 C                    6.0000    -1.25057126    -3.80984419     1.91071286
   22 C                    6.0000    -0.76978072    -1.64184267     3.10135760
   23 C                    6.0000     0.66396045     4.61091107     0.54365030
   24 C                    6.0000     0.10119750     3.04799272     2.43689140
   25 C                    6.0000    -0.31481671     4.38756880    -1.63918621
   26 C                    6.0000    -2.00748803     2.59672445    -2.18134588
   27 C                    6.0000    -1.78606767    -4.53886677     0.86115701
   28 H                    1.0000    -2.88374446    -4.47780822    -0.97195490
   29 C                    6.0000    -4.87486260    -2.25267533    -1.20219175
   30 C                    6.0000    -2.80042601    -2.09853961    -2.63655818
   31 H                    1.0000    -3.35802953    -0.75385892    -1.08369920
   32 H                    1.0000    -0.72319390    -4.32420488     2.70480548
   33 C                    6.0000     0.72605240    -1.91237713     3.25881622
   34 C                    6.0000    -1.52275868    -1.94568592     4.39909416
   35 H                    1.0000    -0.88210072    -0.57795721     2.88213145
   36 C                    6.0000     0.53091747     5.04766764    -0.76326891
   37 H                    1.0000     1.32328371     5.13856660     1.22222127
   38 C                    6.0000    -0.43757572     4.11428513     3.39472763
   39 C                    6.0000     1.54539210     2.68600052     2.77942676
   40 H                    1.0000    -0.49824109     2.14383488     2.56736913
   41 H                    1.0000    -0.40991597     4.74101835    -2.65772983
   42 C                    6.0000    -1.41187063     2.33960462    -3.56525199
   43 C                    6.0000    -3.28534895     3.43456749    -2.30162247
   44 H                    1.0000    -2.27159899     1.62555914    -1.75609773
   45 H                    1.0000    -1.67139260    -5.61502240     0.83842274
   46 H                    1.0000    -5.31114421    -2.04869163    -0.22221950
   47 H                    1.0000    -4.98324131    -3.32164786    -1.39615764
   48 H                    1.0000    -5.45496099    -1.71537656    -1.95445969
   49 H                    1.0000    -1.75650511    -1.78096649    -2.67718265
   50 H                    1.0000    -3.35671364    -1.55808211    -3.40477298
   51 H                    1.0000    -2.83794425    -3.16144169    -2.88404463
   52 H                    1.0000     1.25998866    -1.69242458     2.33501325
   53 H                    1.0000     0.91693122    -2.95557595     3.51845292
   54 H                    1.0000     1.14219255    -1.28876073     4.05227541
   55 H                    1.0000    -2.59145959    -1.74542860     4.29945456
   56 H                    1.0000    -1.13345589    -1.34011792     5.21936645
   57 H                    1.0000    -1.40906615    -2.99633338     4.67424683
   58 H                    1.0000     1.08852730     5.91184547    -1.10165555
   59 H                    1.0000    -1.47410835     4.37385922     3.16964507
   60 H                    1.0000     0.15267706     5.03030770     3.32704455
   61 H                    1.0000    -0.38714208     3.76147003     4.42678016
   62 H                    1.0000     1.92605160     1.91617523     2.10963354
   63 H                    1.0000     1.61198303     2.31679399     3.80537727
   64 H                    1.0000     2.19995216     3.55583527     2.69475197
   65 H                    1.0000    -0.46570404     1.80939467    -3.48401167
   66 H                    1.0000    -1.23714895     3.27525241    -4.10101757
   67 H                    1.0000    -2.10849734     1.74792004    -4.16301574
   68 H                    1.0000    -3.74734466     3.62367752    -1.33062349
   69 H                    1.0000    -4.01464696     2.93102713    -2.93940701
   70 H                    1.0000    -3.05846479     4.40416958    -2.75071254
   71 N                    7.0000     1.17337451    -1.43680047    -1.88092215
   72 C                    6.0000     4.73367522     1.44383223     1.38669114
   73 C                    6.0000     4.40064935     2.34089991     0.38003613
   74 H                    1.0000     4.31224748    -0.46068200     2.28170233
   75 C                    6.0000     4.04373195     0.24366210     1.50377920
   76 C                    6.0000     3.36310178     2.04857658    -0.48731313
   77 C                    6.0000     2.64002679     0.86980648    -0.34523465
   78 C                    6.0000     2.99577137    -0.04421903     0.64045969
   79 H                    1.0000     3.07091752     2.72499662    -1.27969542
   80 H                    1.0000     2.46162069    -0.98080112     0.73095300
   81 H                    1.0000     5.52880149     1.68336983     2.08125626
   82 H                    1.0000     4.93842685     3.27457146     0.27788820
   83 C                    6.0000     2.06867549    -2.39818912    -1.44088088
   84 C                    6.0000     3.33459404    -2.60861003    -2.00738675
   85 C                    6.0000     1.67814174    -3.23084077    -0.38570458
   86 C                    6.0000     4.13370585    -3.65572901    -1.57190955
   87 H                    1.0000     3.69720890    -1.94423785    -2.78207961
   88 C                    6.0000     2.47870519    -4.27060772     0.04552661
   89 H                    1.0000     0.69559820    -3.06623744     0.04500649
   90 C                    6.0000     3.70943191    -4.50376787    -0.55714204
   91 H                    1.0000     5.10092923    -3.81477679    -2.03442292
   92 H                    1.0000     2.11909403    -4.92488855     0.83055980
   93 H                    1.0000     4.32249987    -5.33859928    -0.24587312
   94 C                    6.0000     1.05936479    -1.26866302    -3.31542656
   95 H                    1.0000     1.99515481    -1.03448099    -3.83461253
   96 H                    1.0000     0.65457451    -2.19324625    -3.74336875
   97 H                    1.0000     0.36545391    -0.45844248    -3.53259805

      Atomic Mass 
      ----------- 

      C                 12.000000
      O                 15.994910
      Ni                57.935300
      N                 14.003070
      H                  1.007825


 Effective nuclear repulsion energy (a.u.)    7259.4104727080

            Nuclear Dipole moment (a.u.) 
            ----------------------------
        X                 Y               Z
 ---------------- ---------------- ----------------
    -0.0000000000     0.0000000000    -0.0000000000



                                Z-matrix (autoz)
                                -------- 

 Units are Angstrom for bonds and degrees for angles

      Type          Name      I     J     K     L     M      Value
      ----------- --------  ----- ----- ----- ----- ----- ----------
    1 Stretch                  1     2                       1.20850
    2 Stretch                  1     3                       1.82646
    3 Stretch                  1    77                       1.50052
    4 Stretch                  3     4                       1.90368
    5 Stretch                  3    71                       1.83718
    6 Stretch                  4     5                       1.34554
    7 Stretch                  4     6                       1.33474
    8 Stretch                  5     7                       1.46368
    9 Stretch                  5     8                       1.42785
   10 Stretch                  6     9                       1.46797
   11 Stretch                  6    10                       1.42898
   12 Stretch                  7     9                       1.53168
   13 Stretch                  7    11                       1.09119
   14 Stretch                  7    12                       1.09371
   15 Stretch                  8    13                       1.39914
   16 Stretch                  8    14                       1.39981
   17 Stretch                  9    15                       1.09299
   18 Stretch                  9    16                       1.09031
   19 Stretch                 10    17                       1.39744
   20 Stretch                 10    18                       1.39757
   21 Stretch                 13    19                       1.39108
   22 Stretch                 13    20                       1.51608
   23 Stretch                 14    21                       1.38971
   24 Stretch                 14    22                       1.51609
   25 Stretch                 17    23                       1.38990
   26 Stretch                 17    24                       1.51728
   27 Stretch                 18    25                       1.38919
   28 Stretch                 18    26                       1.51698
   29 Stretch                 19    27                       1.38405
   30 Stretch                 19    28                       1.08295
   31 Stretch                 20    29                       1.53141
   32 Stretch                 20    30                       1.52867
   33 Stretch                 20    31                       1.09195
   34 Stretch                 21    27                       1.38557
   35 Stretch                 21    32                       1.08318
   36 Stretch                 22    33                       1.52823
   37 Stretch                 22    34                       1.53082
   38 Stretch                 22    35                       1.09203
   39 Stretch                 23    36                       1.38438
   40 Stretch                 23    37                       1.08332
   41 Stretch                 24    38                       1.53124
   42 Stretch                 24    39                       1.52777
   43 Stretch                 24    40                       1.09264
   44 Stretch                 25    36                       1.38500
   45 Stretch                 25    41                       1.08231
   46 Stretch                 26    42                       1.52842
   47 Stretch                 26    43                       1.53277
   48 Stretch                 26    44                       1.09259
   49 Stretch                 27    45                       1.08249
   50 Stretch                 29    46                       1.09192
   51 Stretch                 29    47                       1.09182
   52 Stretch                 29    48                       1.09138
   53 Stretch                 30    49                       1.09191
   54 Stretch                 30    50                       1.09165
   55 Stretch                 30    51                       1.09198
   56 Stretch                 33    52                       1.08944
   57 Stretch                 33    53                       1.09184
   58 Stretch                 33    54                       1.09163
   59 Stretch                 34    55                       1.09186
   60 Stretch                 34    56                       1.09138
   61 Stretch                 34    57                       1.09201
   62 Stretch                 36    58                       1.08270
   63 Stretch                 38    59                       1.09199
   64 Stretch                 38    60                       1.09182
   65 Stretch                 38    61                       1.09186
   66 Stretch                 39    62                       1.08911
   67 Stretch                 39    63                       1.09239
   68 Stretch                 39    64                       1.09189
   69 Stretch                 42    65                       1.08764
   70 Stretch                 42    66                       1.09225
   71 Stretch                 42    67                       1.09211
   72 Stretch                 43    68                       1.09181
   73 Stretch                 43    69                       1.09188
   74 Stretch                 43    70                       1.09238
   75 Stretch                 71    83                       1.38545
   76 Stretch                 71    94                       1.44882
   77 Stretch                 72    73                       1.38888
   78 Stretch                 72    75                       1.38929
   79 Stretch                 72    81                       1.08260
   80 Stretch                 73    76                       1.38357
   81 Stretch                 73    82                       1.08230
   82 Stretch                 74    75                       1.08322
   83 Stretch                 75    78                       1.38795
   84 Stretch                 76    77                       1.39015
   85 Stretch                 76    79                       1.08203
   86 Stretch                 77    78                       1.39054
   87 Stretch                 78    80                       1.08199
   88 Stretch                 83    84                       1.40277
   89 Stretch                 83    85                       1.39972
   90 Stretch                 84    86                       1.38733
   91 Stretch                 84    87                       1.08306
   92 Stretch                 85    88                       1.38130
   93 Stretch                 85    89                       1.08536
   94 Stretch                 86    90                       1.38886
   95 Stretch                 86    91                       1.08385
   96 Stretch                 88    90                       1.39006
   97 Stretch                 88    92                       1.08337
   98 Stretch                 90    93                       1.08152
   99 Stretch                 94    95                       1.09549
  100 Stretch                 94    96                       1.09629
  101 Stretch                 94    97                       1.08864
  102 Bend                     1     3     4               110.79673
  103 Bend                     1     3    71                76.81220
  104 Bend                     1    77    76               116.06596
  105 Bend                     1    77    78               123.96335
  106 Bend                     2     1     3               120.36736
  107 Bend                     2     1    77               120.41382
  108 Bend                     3     1    77               119.20310
  109 Bend                     3     4     5               117.04645
  110 Bend                     3     4     6               135.46965
  111 Bend                     3    71    83               123.30718
  112 Bend                     3    71    94               120.17410
  113 Bend                     4     3    71               170.78610
  114 Bend                     4     5     7               114.24698
  115 Bend                     4     5     8               122.40901
  116 Bend                     4     6     9               113.61458
  117 Bend                     4     6    10               125.18301
  118 Bend                     5     4     6               107.02124
  119 Bend                     5     7     9               101.50442
  120 Bend                     5     7    11               110.81689
  121 Bend                     5     7    12               110.68491
  122 Bend                     5     8    13               118.74526
  123 Bend                     5     8    14               119.05791
  124 Bend                     6     9     7               102.45173
  125 Bend                     6     9    15               109.85527
  126 Bend                     6     9    16               110.72849
  127 Bend                     6    10    17               118.06634
  128 Bend                     6    10    18               119.34807
  129 Bend                     7     5     8               123.09677
  130 Bend                     7     9    15               112.36446
  131 Bend                     7     9    16               113.16656
  132 Bend                     8    13    19               117.86826
  133 Bend                     8    13    20               121.93932
  134 Bend                     8    14    21               117.91590
  135 Bend                     8    14    22               121.89052
  136 Bend                     9     6    10               120.98929
  137 Bend                     9     7    11               112.89380
  138 Bend                     9     7    12               112.69814
  139 Bend                    10    17    23               117.81892
  140 Bend                    10    17    24               122.16060
  141 Bend                    10    18    25               117.57253
  142 Bend                    10    18    26               121.94892
  143 Bend                    11     7    12               108.16808
  144 Bend                    13     8    14               122.19621
  145 Bend                    13    19    27               120.87062
  146 Bend                    13    19    28               119.53271
  147 Bend                    13    20    29               110.48761
  148 Bend                    13    20    30               111.70073
  149 Bend                    13    20    31               107.86563
  150 Bend                    14    21    27               120.84042
  151 Bend                    14    21    32               119.57030
  152 Bend                    14    22    33               111.68127
  153 Bend                    14    22    34               110.55974
  154 Bend                    14    22    35               108.06893
  155 Bend                    15     9    16               108.19045
  156 Bend                    17    10    18               122.57382
  157 Bend                    17    23    36               120.69101
  158 Bend                    17    23    37               119.56186
  159 Bend                    17    24    38               110.96070
  160 Bend                    17    24    39               111.56834
  161 Bend                    17    24    40               108.01489
  162 Bend                    18    25    36               120.95737
  163 Bend                    18    25    41               119.49035
  164 Bend                    18    26    42               113.00162
  165 Bend                    18    26    43               109.94940
  166 Bend                    18    26    44               107.85851
  167 Bend                    19    13    20               120.18257
  168 Bend                    19    27    21               120.27709
  169 Bend                    19    27    45               119.85214
  170 Bend                    20    29    46               111.40196
  171 Bend                    20    29    47               111.01304
  172 Bend                    20    29    48               110.48862
  173 Bend                    20    30    49               111.09711
  174 Bend                    20    30    50               110.30086
  175 Bend                    20    30    51               111.17977
  176 Bend                    21    14    22               120.19294
  177 Bend                    21    27    45               119.87062
  178 Bend                    22    33    52               110.89168
  179 Bend                    22    33    53               111.39258
  180 Bend                    22    33    54               110.29724
  181 Bend                    22    34    55               111.57263
  182 Bend                    22    34    56               110.58303
  183 Bend                    22    34    57               110.69279
  184 Bend                    23    17    24               120.01540
  185 Bend                    23    36    25               120.35567
  186 Bend                    23    36    58               119.82634
  187 Bend                    24    38    59               111.75133
  188 Bend                    24    38    60               110.80814
  189 Bend                    24    38    61               110.48716
  190 Bend                    24    39    62               111.09964
  191 Bend                    24    39    63               110.38189
  192 Bend                    24    39    64               111.13326
  193 Bend                    25    18    26               120.43661
  194 Bend                    25    36    58               119.81769
  195 Bend                    26    42    65               110.69438
  196 Bend                    26    42    66               111.24570
  197 Bend                    26    42    67               109.76492
  198 Bend                    26    43    68               112.18932
  199 Bend                    26    43    69               110.52408
  200 Bend                    26    43    70               110.13838
  201 Bend                    27    19    28               119.59663
  202 Bend                    27    21    32               119.58050
  203 Bend                    29    20    30               111.32151
  204 Bend                    29    20    31               107.82404
  205 Bend                    30    20    31               107.45259
  206 Bend                    33    22    34               111.03684
  207 Bend                    33    22    35               107.08677
  208 Bend                    34    22    35               108.23776
  209 Bend                    36    23    37               119.74609
  210 Bend                    36    25    41               119.54972
  211 Bend                    38    24    39               110.93787
  212 Bend                    38    24    40               107.96923
  213 Bend                    39    24    40               107.20330
  214 Bend                    42    26    43               110.23014
  215 Bend                    42    26    44               107.28238
  216 Bend                    43    26    44               108.35390
  217 Bend                    46    29    47               107.61866
  218 Bend                    46    29    48               108.31667
  219 Bend                    47    29    48               107.86613
  220 Bend                    49    30    50               108.48244
  221 Bend                    49    30    51               107.90938
  222 Bend                    50    30    51               107.75216
  223 Bend                    52    33    53               107.99074
  224 Bend                    52    33    54               108.31130
  225 Bend                    53    33    54               107.83841
  226 Bend                    55    34    56               108.41886
  227 Bend                    55    34    57               107.53933
  228 Bend                    56    34    57               107.89840
  229 Bend                    59    38    60               107.51447
  230 Bend                    59    38    61               108.39024
  231 Bend                    60    38    61               107.74177
  232 Bend                    62    39    63               108.50476
  233 Bend                    62    39    64               107.81073
  234 Bend                    63    39    64               107.79026
  235 Bend                    65    42    66               108.36533
  236 Bend                    65    42    67               109.37053
  237 Bend                    66    42    67               107.31699
  238 Bend                    68    43    69               108.46529
  239 Bend                    68    43    70               107.44375
  240 Bend                    69    43    70               107.93434
  241 Bend                    71    83    84               123.98643
  242 Bend                    71    83    85               118.15933
  243 Bend                    71    94    95               115.26698
  244 Bend                    71    94    96               108.52271
  245 Bend                    71    94    97               109.51471
  246 Bend                    72    73    76               119.84911
  247 Bend                    72    73    82               120.42806
  248 Bend                    72    75    74               119.94295
  249 Bend                    72    75    78               120.11385
  250 Bend                    73    72    75               119.99827
  251 Bend                    73    72    81               119.88134
  252 Bend                    73    76    77               120.34085
  253 Bend                    73    76    79               121.97178
  254 Bend                    74    75    78               119.93369
  255 Bend                    75    72    81               120.12002
  256 Bend                    75    78    77               119.85081
  257 Bend                    75    78    80               120.01742
  258 Bend                    76    73    82               119.71706
  259 Bend                    76    77    78               119.78508
  260 Bend                    77    76    79               117.67613
  261 Bend                    77    78    80               120.13059
  262 Bend                    83    71    94               116.47843
  263 Bend                    83    84    86               120.41552
  264 Bend                    83    84    87               119.93328
  265 Bend                    83    85    88               121.42798
  266 Bend                    83    85    89               117.48504
  267 Bend                    84    83    85               117.83950
  268 Bend                    84    86    90               120.94750
  269 Bend                    84    86    91               119.39545
  270 Bend                    85    88    90               120.26833
  271 Bend                    85    88    92               119.23870
  272 Bend                    86    84    87               119.64772
  273 Bend                    86    90    88               119.00114
  274 Bend                    86    90    93               120.56039
  275 Bend                    88    85    89               120.99365
  276 Bend                    88    90    93               120.43616
  277 Bend                    90    86    91               119.65660
  278 Bend                    90    88    92               120.44804
  279 Bend                    95    94    96               108.10123
  280 Bend                    95    94    97               106.90875
  281 Bend                    96    94    97               108.32801
  282 Torsion                  1     3     4     5        -170.81837
  283 Torsion                  1     3     4     6          18.19432
  284 Torsion                  1     3    71    83         103.44335
  285 Torsion                  1     3    71    94         -78.94833
  286 Torsion                  1    77    76    73         172.68999
  287 Torsion                  1    77    76    79          -6.11467
  288 Torsion                  1    77    78    75        -172.83961
  289 Torsion                  1    77    78    80           7.55542
  290 Torsion                  2     1     3     4         -87.25593
  291 Torsion                  2     1     3    71          87.30541
  292 Torsion                  2     1    77    76          19.53766
  293 Torsion                  2     1    77    78        -165.43921
  294 Torsion                  3     1    77    76        -159.02522
  295 Torsion                  3     1    77    78          15.99791
  296 Torsion                  3     4     5     7        -176.20176
  297 Torsion                  3     4     5     8           9.34923
  298 Torsion                  3     4     6     9         166.76455
  299 Torsion                  3     4     6    10          -7.94907
  300 Torsion                  3    71    83    84        -141.37246
  301 Torsion                  3    71    83    85          40.05678
  302 Torsion                  3    71    94    95         125.45170
  303 Torsion                  3    71    94    96        -113.18446
  304 Torsion                  3    71    94    97           4.88794
  305 Torsion                  4     3     1    77          91.30763
  306 Torsion                  4     3    71    83        -110.15462
  307 Torsion                  4     3    71    94          67.45370
  308 Torsion                  4     5     7     9           8.52198
  309 Torsion                  4     5     7    11         128.66164
  310 Torsion                  4     5     7    12        -111.33052
  311 Torsion                  4     5     8    13         -90.22375
  312 Torsion                  4     5     8    14          89.49607
  313 Torsion                  4     6     9     7           9.82112
  314 Torsion                  4     6     9    15        -109.78456
  315 Torsion                  4     6     9    16         130.77375
  316 Torsion                  4     6    10    17        -100.28070
  317 Torsion                  4     6    10    18          80.93430
  318 Torsion                  5     4     3    71          44.37361
  319 Torsion                  5     4     6     9          -4.84530
  320 Torsion                  5     4     6    10        -179.55893
  321 Torsion                  5     7     9     6         -10.06576
  322 Torsion                  5     7     9    15         107.77198
  323 Torsion                  5     7     9    16        -129.32381
  324 Torsion                  5     8    13    19         177.69463
  325 Torsion                  5     8    13    20          -3.44562
  326 Torsion                  5     8    14    21        -178.40961
  327 Torsion                  5     8    14    22           1.88210
  328 Torsion                  6     4     3    71        -126.61370
  329 Torsion                  6     4     5     7          -2.79912
  330 Torsion                  6     4     5     8        -177.24814
  331 Torsion                  6     9     7    11        -128.72696
  332 Torsion                  6     9     7    12         108.34989
  333 Torsion                  6    10    17    23         179.41146
  334 Torsion                  6    10    17    24          -1.40910
  335 Torsion                  6    10    18    25        -179.32715
  336 Torsion                  6    10    18    26           3.01996
  337 Torsion                  7     5     8    13          95.81955
  338 Torsion                  7     5     8    14         -84.46063
  339 Torsion                  7     9     6    10        -175.21826
  340 Torsion                  8     5     7     9        -177.07218
  341 Torsion                  8     5     7    11         -56.93252
  342 Torsion                  8     5     7    12          63.07533
  343 Torsion                  8    13    19    27           1.12447
  344 Torsion                  8    13    19    28        -178.80030
  345 Torsion                  8    13    20    29        -114.16738
  346 Torsion                  8    13    20    30         121.32929
  347 Torsion                  8    13    20    31           3.46216
  348 Torsion                  8    14    21    27           0.32934
  349 Torsion                  8    14    21    32         179.24680
  350 Torsion                  8    14    22    33        -123.35345
  351 Torsion                  8    14    22    34         112.47354
  352 Torsion                  8    14    22    35          -5.81795
  353 Torsion                  9     6    10    17          85.37063
  354 Torsion                  9     6    10    18         -93.41438
  355 Torsion                 10     6     9    15          65.17606
  356 Torsion                 10     6     9    16         -54.26562
  357 Torsion                 10    17    23    36           0.44718
  358 Torsion                 10    17    23    37        -179.18057
  359 Torsion                 10    17    24    38        -115.43930
  360 Torsion                 10    17    24    39         120.30289
  361 Torsion                 10    17    24    40           2.72348
  362 Torsion                 10    18    25    36          -0.65554
  363 Torsion                 10    18    25    41         178.75835
  364 Torsion                 10    18    26    42        -134.23823
  365 Torsion                 10    18    26    43         102.13892
  366 Torsion                 10    18    26    44         -15.82338
  367 Torsion                 11     7     9    15         -10.88923
  368 Torsion                 11     7     9    16         112.01498
  369 Torsion                 12     7     9    15        -133.81237
  370 Torsion                 12     7     9    16         -10.90816
  371 Torsion                 13     8    14    21           1.30009
  372 Torsion                 13     8    14    22        -178.40820
  373 Torsion                 13    19    27    21           0.43467
  374 Torsion                 13    19    27    45        -179.42424
  375 Torsion                 13    20    29    46          56.10495
  376 Torsion                 13    20    29    47         -63.81633
  377 Torsion                 13    20    29    48         176.55513
  378 Torsion                 13    20    30    49         -56.92459
  379 Torsion                 13    20    30    50        -177.25700
  380 Torsion                 13    20    30    51          63.27221
  381 Torsion                 14     8    13    19          -2.01595
  382 Torsion                 14     8    13    20         176.84380
  383 Torsion                 14    21    27    19          -1.18703
  384 Torsion                 14    21    27    45         178.67186
  385 Torsion                 14    22    33    52          56.27336
  386 Torsion                 14    22    33    53         -64.03070
  387 Torsion                 14    22    33    54         176.25521
  388 Torsion                 14    22    34    55         -56.04823
  389 Torsion                 14    22    34    56        -176.80584
  390 Torsion                 14    22    34    57          63.67102
  391 Torsion                 17    10    18    25           1.94511
  392 Torsion                 17    10    18    26        -175.70779
  393 Torsion                 17    23    36    25           0.77596
  394 Torsion                 17    23    36    58        -179.42295
  395 Torsion                 17    24    38    59          56.11613
  396 Torsion                 17    24    38    60         -63.76818
  397 Torsion                 17    24    38    61         176.89188
  398 Torsion                 17    24    39    62         -56.63644
  399 Torsion                 17    24    39    63        -177.05240
  400 Torsion                 17    24    39    64          63.40611
  401 Torsion                 18    10    17    23          -1.84530
  402 Torsion                 18    10    17    24         177.33415
  403 Torsion                 18    25    36    23          -0.66827
  404 Torsion                 18    25    36    58         179.53063
  405 Torsion                 18    26    42    65          52.31261
  406 Torsion                 18    26    42    66         -68.23373
  407 Torsion                 18    26    42    67         173.14220
  408 Torsion                 18    26    43    68         -55.71475
  409 Torsion                 18    26    43    69        -176.90896
  410 Torsion                 18    26    43    70          63.91531
  411 Torsion                 19    13    20    29          64.66652
  412 Torsion                 19    13    20    30         -59.83681
  413 Torsion                 19    13    20    31        -177.70394
  414 Torsion                 19    27    21    32         179.89563
  415 Torsion                 20    13    19    27        -177.75615
  416 Torsion                 20    13    19    28           2.31908
  417 Torsion                 21    14    22    33          56.94476
  418 Torsion                 21    14    22    34         -67.22824
  419 Torsion                 21    14    22    35         174.48027
  420 Torsion                 21    27    19    28        -179.64061
  421 Torsion                 22    14    21    27        -179.95721
  422 Torsion                 22    14    21    32          -1.03975
  423 Torsion                 23    17    24    38          63.72258
  424 Torsion                 23    17    24    39         -60.53523
  425 Torsion                 23    17    24    40        -178.11464
  426 Torsion                 23    36    25    41         179.91818
  427 Torsion                 24    17    23    36        -178.75058
  428 Torsion                 24    17    23    37           1.62166
  429 Torsion                 25    18    26    42          48.17489
  430 Torsion                 25    18    26    43         -75.44796
  431 Torsion                 25    18    26    44         166.58974
  432 Torsion                 25    36    23    37        -179.59696
  433 Torsion                 26    18    25    36         177.03459
  434 Torsion                 26    18    25    41          -3.55153
  435 Torsion                 28    19    27    45           0.50048
  436 Torsion                 29    20    30    49         179.03953
  437 Torsion                 29    20    30    50          58.70713
  438 Torsion                 29    20    30    51         -60.76366
  439 Torsion                 30    20    29    46        -179.17515
  440 Torsion                 30    20    29    47          60.90357
  441 Torsion                 30    20    29    48         -58.72497
  442 Torsion                 31    20    29    46         -61.55015
  443 Torsion                 31    20    29    47         178.52857
  444 Torsion                 31    20    29    48          58.90003
  445 Torsion                 31    20    30    49          61.18994
  446 Torsion                 31    20    30    50         -59.14247
  447 Torsion                 31    20    30    51        -178.61326
  448 Torsion                 32    21    27    45          -0.24548
  449 Torsion                 33    22    34    55         179.41010
  450 Torsion                 33    22    34    56          58.65249
  451 Torsion                 33    22    34    57         -60.87065
  452 Torsion                 34    22    33    52        -179.82190
  453 Torsion                 34    22    33    53          59.87403
  454 Torsion                 34    22    33    54         -59.84005
  455 Torsion                 35    22    33    52         -61.85153
  456 Torsion                 35    22    33    53         177.84440
  457 Torsion                 35    22    33    54          58.13032
  458 Torsion                 35    22    34    55          62.14018
  459 Torsion                 35    22    34    56         -58.61743
  460 Torsion                 35    22    34    57        -178.14057
  461 Torsion                 37    23    36    58           0.20412
  462 Torsion                 38    24    39    62         179.09291
  463 Torsion                 38    24    39    63          58.67695
  464 Torsion                 38    24    39    64         -60.86454
  465 Torsion                 39    24    38    59        -179.26841
  466 Torsion                 39    24    38    60          60.84728
  467 Torsion                 39    24    38    61         -58.49266
  468 Torsion                 40    24    38    59         -62.07433
  469 Torsion                 40    24    38    60         178.04135
  470 Torsion                 40    24    38    61          58.70141
  471 Torsion                 40    24    39    62          61.43105
  472 Torsion                 40    24    39    63         -58.98491
  473 Torsion                 40    24    39    64        -178.52640
  474 Torsion                 41    25    36    58           0.11709
  475 Torsion                 42    26    43    68         179.05977
  476 Torsion                 42    26    43    69          57.86556
  477 Torsion                 42    26    43    70         -61.31017
  478 Torsion                 43    26    42    65         175.78059
  479 Torsion                 43    26    42    66          55.23426
  480 Torsion                 43    26    42    67         -63.38982
  481 Torsion                 44    26    42    65         -66.43709
  482 Torsion                 44    26    42    66         173.01657
  483 Torsion                 44    26    42    67          54.39250
  484 Torsion                 44    26    43    68          61.94045
  485 Torsion                 44    26    43    69         -59.25377
  486 Torsion                 44    26    43    70        -178.42949
  487 Torsion                 71     3     1    77         -94.13103
  488 Torsion                 71    83    84    86        -175.32224
  489 Torsion                 71    83    84    87           5.35810
  490 Torsion                 71    83    85    88         175.48077
  491 Torsion                 71    83    85    89          -1.03945
  492 Torsion                 72    73    76    77           0.88174
  493 Torsion                 72    73    76    79         179.63386
  494 Torsion                 72    75    78    77           0.19320
  495 Torsion                 72    75    78    80         179.79862
  496 Torsion                 73    72    75    74         179.25267
  497 Torsion                 73    72    75    78          -1.86998
  498 Torsion                 73    76    77    78          -2.55443
  499 Torsion                 74    75    72    81          -0.96996
  500 Torsion                 74    75    78    77         179.07065
  501 Torsion                 74    75    78    80          -1.32392
  502 Torsion                 75    72    73    76           1.33213
  503 Torsion                 75    72    73    82        -179.54410
  504 Torsion                 75    78    77    76           2.00876
  505 Torsion                 76    73    72    81        -178.44578
  506 Torsion                 76    77    78    80        -177.59621
  507 Torsion                 77    76    73    82        -178.24830
  508 Torsion                 78    75    72    81         177.90739
  509 Torsion                 78    77    76    79         178.64091
  510 Torsion                 79    76    73    82           0.50382
  511 Torsion                 81    72    73    82           0.67799
  512 Torsion                 83    71    94    95         -56.78129
  513 Torsion                 83    71    94    96          64.58255
  514 Torsion                 83    71    94    97        -177.34504
  515 Torsion                 83    84    86    90          -0.93265
  516 Torsion                 83    84    86    91         178.82075
  517 Torsion                 83    85    88    90           0.74301
  518 Torsion                 83    85    88    92        -176.83047
  519 Torsion                 84    83    71    94          40.93741
  520 Torsion                 84    83    85    88          -3.17905
  521 Torsion                 84    83    85    89        -179.69927
  522 Torsion                 84    86    90    88          -1.57080
  523 Torsion                 84    86    90    93         177.87866
  524 Torsion                 85    83    71    94        -137.63335
  525 Torsion                 85    83    84    86           3.25276
  526 Torsion                 85    83    84    87        -176.06690
  527 Torsion                 85    88    90    86           1.66725
  528 Torsion                 85    88    90    93        -177.78292
  529 Torsion                 86    90    88    92         179.21114
  530 Torsion                 87    84    86    90         178.38895
  531 Torsion                 87    84    86    91          -1.85765
  532 Torsion                 88    90    86    91         178.67643
  533 Torsion                 89    85    88    90         177.14166
  534 Torsion                 89    85    88    92          -0.43182
  535 Torsion                 91    86    90    93          -1.87411
  536 Torsion                 92    88    90    93          -0.23902


            XYZ format geometry
            -------------------
    97
 geometry
 C                     1.43248136     0.72699139    -1.22443323
 O                     1.31876996     1.40001560    -2.22171863
 Ni                    0.11753246    -0.44787453    -0.74845950
 C                    -1.20895078     0.41479127     0.30995092
 N                    -2.13596379    -0.37031545     0.88850726
 N                    -1.57120332     1.67925209     0.53673247
 C                    -3.17504934     0.36145845     1.61456027
 C                    -2.03683304    -1.79470439     0.89420247
 C                    -2.86799478     1.80723199     1.21267095
 C                    -0.86091026     2.83322808     0.08307789
 H                    -4.16867079     0.03597452     1.30235360
 H                    -3.08425802     0.19445803     2.69163013
 C                    -2.61412037    -2.51359224    -0.15819520
 C                    -1.36208183    -2.42506666     1.94625824
 H                    -3.60950715     2.21263216     0.51953583
 H                    -2.79379716     2.48287472     2.06518565
 C                    -0.03413766     3.49651540     0.99375739
 C                    -1.03406100     3.27065573    -1.23293553
 C                    -2.46457590    -3.89661408    -0.15998504
 C                    -3.40373423    -1.83088382    -1.25770870
 C                    -1.25057126    -3.80984419     1.91071286
 C                    -0.76978072    -1.64184267     3.10135760
 C                     0.66396045     4.61091107     0.54365030
 C                     0.10119750     3.04799272     2.43689140
 C                    -0.31481671     4.38756880    -1.63918621
 C                    -2.00748803     2.59672445    -2.18134588
 C                    -1.78606767    -4.53886677     0.86115701
 H                    -2.88374446    -4.47780822    -0.97195490
 C                    -4.87486260    -2.25267533    -1.20219175
 C                    -2.80042601    -2.09853961    -2.63655818
 H                    -3.35802953    -0.75385892    -1.08369920
 H                    -0.72319390    -4.32420488     2.70480548
 C                     0.72605240    -1.91237713     3.25881622
 C                    -1.52275868    -1.94568592     4.39909416
 H                    -0.88210072    -0.57795721     2.88213145
 C                     0.53091747     5.04766764    -0.76326891
 H                     1.32328371     5.13856660     1.22222127
 C                    -0.43757572     4.11428513     3.39472763
 C                     1.54539210     2.68600052     2.77942676
 H                    -0.49824109     2.14383488     2.56736913
 H                    -0.40991597     4.74101835    -2.65772983
 C                    -1.41187063     2.33960462    -3.56525199
 C                    -3.28534895     3.43456749    -2.30162247
 H                    -2.27159899     1.62555914    -1.75609773
 H                    -1.67139260    -5.61502240     0.83842274
 H                    -5.31114421    -2.04869163    -0.22221950
 H                    -4.98324131    -3.32164786    -1.39615764
 H                    -5.45496099    -1.71537656    -1.95445969
 H                    -1.75650511    -1.78096649    -2.67718265
 H                    -3.35671364    -1.55808211    -3.40477298
 H                    -2.83794425    -3.16144169    -2.88404463
 H                     1.25998866    -1.69242458     2.33501325
 H                     0.91693122    -2.95557595     3.51845292
 H                     1.14219255    -1.28876073     4.05227541
 H                    -2.59145959    -1.74542860     4.29945456
 H                    -1.13345589    -1.34011792     5.21936645
 H                    -1.40906615    -2.99633338     4.67424683
 H                     1.08852730     5.91184547    -1.10165555
 H                    -1.47410835     4.37385922     3.16964507
 H                     0.15267706     5.03030770     3.32704455
 H                    -0.38714208     3.76147003     4.42678016
 H                     1.92605160     1.91617523     2.10963354
 H                     1.61198303     2.31679399     3.80537727
 H                     2.19995216     3.55583527     2.69475197
 H                    -0.46570404     1.80939467    -3.48401167
 H                    -1.23714895     3.27525241    -4.10101757
 H                    -2.10849734     1.74792004    -4.16301574
 H                    -3.74734466     3.62367752    -1.33062349
 H                    -4.01464696     2.93102713    -2.93940701
 H                    -3.05846479     4.40416958    -2.75071254
 N                     1.17337451    -1.43680047    -1.88092215
 C                     4.73367522     1.44383223     1.38669114
 C                     4.40064935     2.34089991     0.38003613
 H                     4.31224748    -0.46068200     2.28170233
 C                     4.04373195     0.24366210     1.50377920
 C                     3.36310178     2.04857658    -0.48731313
 C                     2.64002679     0.86980648    -0.34523465
 C                     2.99577137    -0.04421903     0.64045969
 H                     3.07091752     2.72499662    -1.27969542
 H                     2.46162069    -0.98080112     0.73095300
 H                     5.52880149     1.68336983     2.08125626
 H                     4.93842685     3.27457146     0.27788820
 C                     2.06867549    -2.39818912    -1.44088088
 C                     3.33459404    -2.60861003    -2.00738675
 C                     1.67814174    -3.23084077    -0.38570458
 C                     4.13370585    -3.65572901    -1.57190955
 H                     3.69720890    -1.94423785    -2.78207961
 C                     2.47870519    -4.27060772     0.04552661
 H                     0.69559820    -3.06623744     0.04500649
 C                     3.70943191    -4.50376787    -0.55714204
 H                     5.10092923    -3.81477679    -2.03442292
 H                     2.11909403    -4.92488855     0.83055980
 H                     4.32249987    -5.33859928    -0.24587312
 C                     1.05936479    -1.26866302    -3.31542656
 H                     1.99515481    -1.03448099    -3.83461253
 H                     0.65457451    -2.19324625    -3.74336875
 H                     0.36545391    -0.45844248    -3.53259805

 ==============================================================================
                                internuclear distances
 ------------------------------------------------------------------------------
       center one      |      center two      | atomic units |  angstroms
 ------------------------------------------------------------------------------
    2 O                |   1 C                |     2.28373  |     1.20850
    3 Ni               |   1 C                |     3.45151  |     1.82646
    4 C                |   3 Ni               |     3.59743  |     1.90368
    5 N                |   4 C                |     2.54270  |     1.34554
    6 N                |   4 C                |     2.52228  |     1.33474
    7 C                |   5 N                |     2.76594  |     1.46368
    8 C                |   5 N                |     2.69824  |     1.42785
    9 C                |   6 N                |     2.77406  |     1.46797
    9 C                |   7 C                |     2.89446  |     1.53168
   10 C                |   6 N                |     2.70038  |     1.42898
   11 H                |   7 C                |     2.06205  |     1.09119
   12 H                |   7 C                |     2.06682  |     1.09371
   13 C                |   8 C                |     2.64400  |     1.39914
   14 C                |   8 C                |     2.64526  |     1.39981
   15 H                |   9 C                |     2.06545  |     1.09299
   16 H                |   9 C                |     2.06039  |     1.09031
   17 C                |  10 C                |     2.64078  |     1.39744
   18 C                |  10 C                |     2.64103  |     1.39757
   19 C                |  13 C                |     2.62877  |     1.39108
   20 C                |  13 C                |     2.86498  |     1.51608
   21 C                |  14 C                |     2.62618  |     1.38971
   22 C                |  14 C                |     2.86499  |     1.51609
   23 C                |  17 C                |     2.62653  |     1.38990
   24 C                |  17 C                |     2.86723  |     1.51728
   25 C                |  18 C                |     2.62519  |     1.38919
   26 C                |  18 C                |     2.86667  |     1.51698
   27 C                |  19 C                |     2.61547  |     1.38405
   27 C                |  21 C                |     2.61834  |     1.38557
   28 H                |  19 C                |     2.04648  |     1.08295
   29 C                |  20 C                |     2.89394  |     1.53141
   30 C                |  20 C                |     2.88878  |     1.52867
   31 H                |  20 C                |     2.06348  |     1.09195
   32 H                |  21 C                |     2.04691  |     1.08318
   33 C                |  22 C                |     2.88794  |     1.52823
   34 C                |  22 C                |     2.89283  |     1.53082
   35 H                |  22 C                |     2.06364  |     1.09203
   36 C                |  23 C                |     2.61609  |     1.38438
   36 C                |  25 C                |     2.61727  |     1.38500
   37 H                |  23 C                |     2.04718  |     1.08332
   38 C                |  24 C                |     2.89363  |     1.53124
   39 C                |  24 C                |     2.88706  |     1.52777
   40 H                |  24 C                |     2.06478  |     1.09264
   41 H                |  25 C                |     2.04528  |     1.08231
   42 C                |  26 C                |     2.88829  |     1.52842
   43 C                |  26 C                |     2.89651  |     1.53277
   44 H                |  26 C                |     2.06470  |     1.09259
   45 H                |  27 C                |     2.04560  |     1.08249
   46 H                |  29 C                |     2.06344  |     1.09192
   47 H                |  29 C                |     2.06324  |     1.09182
   48 H                |  29 C                |     2.06241  |     1.09138
   49 H                |  30 C                |     2.06342  |     1.09191
   50 H                |  30 C                |     2.06292  |     1.09165
   51 H                |  30 C                |     2.06354  |     1.09198
   52 H                |  33 C                |     2.05874  |     1.08944
   53 H                |  33 C                |     2.06327  |     1.09184
   54 H                |  33 C                |     2.06287  |     1.09163
   55 H                |  34 C                |     2.06331  |     1.09186
   56 H                |  34 C                |     2.06241  |     1.09138
   57 H                |  34 C                |     2.06361  |     1.09201
   58 H                |  36 C                |     2.04600  |     1.08270
   59 H                |  38 C                |     2.06356  |     1.09199
   60 H                |  38 C                |     2.06325  |     1.09182
   61 H                |  38 C                |     2.06331  |     1.09186
   62 H                |  39 C                |     2.05812  |     1.08911
   63 H                |  39 C                |     2.06432  |     1.09239
   64 H                |  39 C                |     2.06338  |     1.09189
   65 H                |  42 C                |     2.05534  |     1.08764
   66 H                |  42 C                |     2.06405  |     1.09225
   67 H                |  42 C                |     2.06379  |     1.09211
   68 H                |  43 C                |     2.06322  |     1.09181
   69 H                |  43 C                |     2.06335  |     1.09188
   70 H                |  43 C                |     2.06429  |     1.09238
   71 N                |   3 Ni               |     3.47178  |     1.83718
   73 C                |  72 C                |     2.62460  |     1.38888
   75 C                |  72 C                |     2.62539  |     1.38929
   75 C                |  74 H                |     2.04699  |     1.08322
   76 C                |  73 C                |     2.61456  |     1.38357
   77 C                |   1 C                |     2.83557  |     1.50052
   77 C                |  76 C                |     2.62701  |     1.39015
   78 C                |  75 C                |     2.62285  |     1.38795
   78 C                |  77 C                |     2.62773  |     1.39054
   79 H                |  76 C                |     2.04474  |     1.08203
   80 H                |  78 C                |     2.04466  |     1.08199
   81 H                |  72 C                |     2.04582  |     1.08260
   82 H                |  73 C                |     2.04526  |     1.08230
   83 C                |  71 N                |     2.61812  |     1.38545
   84 C                |  83 C                |     2.65085  |     1.40277
   85 C                |  83 C                |     2.64509  |     1.39972
   86 C                |  84 C                |     2.62167  |     1.38733
   87 H                |  84 C                |     2.04670  |     1.08306
   88 C                |  85 C                |     2.61027  |     1.38130
   89 H                |  85 C                |     2.05103  |     1.08536
   90 C                |  86 C                |     2.62456  |     1.38886
   90 C                |  88 C                |     2.62683  |     1.39006
   91 H                |  86 C                |     2.04818  |     1.08385
   92 H                |  88 C                |     2.04726  |     1.08337
   93 H                |  90 C                |     2.04378  |     1.08152
   94 C                |  71 N                |     2.73787  |     1.44882
   95 H                |  94 C                |     2.07018  |     1.09549
   96 H                |  94 C                |     2.07168  |     1.09629
   97 H                |  94 C                |     2.05723  |     1.08864
 ------------------------------------------------------------------------------
                         number of included internuclear distances:        101
 ==============================================================================



 ==============================================================================
                                 internuclear angles
 ------------------------------------------------------------------------------
        center 1       |       center 2       |       center 3       |  degrees
 ------------------------------------------------------------------------------
    2 O                |   1 C                |   3 Ni               |   120.37
    2 O                |   1 C                |  77 C                |   120.41
    3 Ni               |   1 C                |  77 C                |   119.20
    1 C                |   3 Ni               |   4 C                |   110.80
    1 C                |   3 Ni               |  71 N                |    76.81
    4 C                |   3 Ni               |  71 N                |   170.79
    3 Ni               |   4 C                |   5 N                |   117.05
    3 Ni               |   4 C                |   6 N                |   135.47
    5 N                |   4 C                |   6 N                |   107.02
    4 C                |   5 N                |   7 C                |   114.25
    4 C                |   5 N                |   8 C                |   122.41
    7 C                |   5 N                |   8 C                |   123.10
    4 C                |   6 N                |   9 C                |   113.61
    4 C                |   6 N                |  10 C                |   125.18
    9 C                |   6 N                |  10 C                |   120.99
    5 N                |   7 C                |   9 C                |   101.50
    5 N                |   7 C                |  11 H                |   110.82
    5 N                |   7 C                |  12 H                |   110.68
    9 C                |   7 C                |  11 H                |   112.89
    9 C                |   7 C                |  12 H                |   112.70
   11 H                |   7 C                |  12 H                |   108.17
    5 N                |   8 C                |  13 C                |   118.75
    5 N                |   8 C                |  14 C                |   119.06
   13 C                |   8 C                |  14 C                |   122.20
    6 N                |   9 C                |   7 C                |   102.45
    6 N                |   9 C                |  15 H                |   109.86
    6 N                |   9 C                |  16 H                |   110.73
    7 C                |   9 C                |  15 H                |   112.36
    7 C                |   9 C                |  16 H                |   113.17
   15 H                |   9 C                |  16 H                |   108.19
    6 N                |  10 C                |  17 C                |   118.07
    6 N                |  10 C                |  18 C                |   119.35
   17 C                |  10 C                |  18 C                |   122.57
    8 C                |  13 C                |  19 C                |   117.87
    8 C                |  13 C                |  20 C                |   121.94
   19 C                |  13 C                |  20 C                |   120.18
    8 C                |  14 C                |  21 C                |   117.92
    8 C                |  14 C                |  22 C                |   121.89
   21 C                |  14 C                |  22 C                |   120.19
   10 C                |  17 C                |  23 C                |   117.82
   10 C                |  17 C                |  24 C                |   122.16
   23 C                |  17 C                |  24 C                |   120.02
   10 C                |  18 C                |  25 C                |   117.57
   10 C                |  18 C                |  26 C                |   121.95
   25 C                |  18 C                |  26 C                |   120.44
   13 C                |  19 C                |  27 C                |   120.87
   13 C                |  19 C                |  28 H                |   119.53
   27 C                |  19 C                |  28 H                |   119.60
   13 C                |  20 C                |  29 C                |   110.49
   13 C                |  20 C                |  30 C                |   111.70
   13 C                |  20 C                |  31 H                |   107.87
   29 C                |  20 C                |  30 C                |   111.32
   29 C                |  20 C                |  31 H                |   107.82
   30 C                |  20 C                |  31 H                |   107.45
   14 C                |  21 C                |  27 C                |   120.84
   14 C                |  21 C                |  32 H                |   119.57
   27 C                |  21 C                |  32 H                |   119.58
   14 C                |  22 C                |  33 C                |   111.68
   14 C                |  22 C                |  34 C                |   110.56
   14 C                |  22 C                |  35 H                |   108.07
   33 C                |  22 C                |  34 C                |   111.04
   33 C                |  22 C                |  35 H                |   107.09
   34 C                |  22 C                |  35 H                |   108.24
   17 C                |  23 C                |  36 C                |   120.69
   17 C                |  23 C                |  37 H                |   119.56
   36 C                |  23 C                |  37 H                |   119.75
   17 C                |  24 C                |  38 C                |   110.96
   17 C                |  24 C                |  39 C                |   111.57
   17 C                |  24 C                |  40 H                |   108.01
   38 C                |  24 C                |  39 C                |   110.94
   38 C                |  24 C                |  40 H                |   107.97
   39 C                |  24 C                |  40 H                |   107.20
   18 C                |  25 C                |  36 C                |   120.96
   18 C                |  25 C                |  41 H                |   119.49
   36 C                |  25 C                |  41 H                |   119.55
   18 C                |  26 C                |  42 C                |   113.00
   18 C                |  26 C                |  43 C                |   109.95
   18 C                |  26 C                |  44 H                |   107.86
   42 C                |  26 C                |  43 C                |   110.23
   42 C                |  26 C                |  44 H                |   107.28
   43 C                |  26 C                |  44 H                |   108.35
   19 C                |  27 C                |  21 C                |   120.28
   19 C                |  27 C                |  45 H                |   119.85
   21 C                |  27 C                |  45 H                |   119.87
   20 C                |  29 C                |  46 H                |   111.40
   20 C                |  29 C                |  47 H                |   111.01
   20 C                |  29 C                |  48 H                |   110.49
   46 H                |  29 C                |  47 H                |   107.62
   46 H                |  29 C                |  48 H                |   108.32
   47 H                |  29 C                |  48 H                |   107.87
   20 C                |  30 C                |  49 H                |   111.10
   20 C                |  30 C                |  50 H                |   110.30
   20 C                |  30 C                |  51 H                |   111.18
   49 H                |  30 C                |  50 H                |   108.48
   49 H                |  30 C                |  51 H                |   107.91
   50 H                |  30 C                |  51 H                |   107.75
   22 C                |  33 C                |  52 H                |   110.89
   22 C                |  33 C                |  53 H                |   111.39
   22 C                |  33 C                |  54 H                |   110.30
   52 H                |  33 C                |  53 H                |   107.99
   52 H                |  33 C                |  54 H                |   108.31
   53 H                |  33 C                |  54 H                |   107.84
   22 C                |  34 C                |  55 H                |   111.57
   22 C                |  34 C                |  56 H                |   110.58
   22 C                |  34 C                |  57 H                |   110.69
   55 H                |  34 C                |  56 H                |   108.42
   55 H                |  34 C                |  57 H                |   107.54
   56 H                |  34 C                |  57 H                |   107.90
   23 C                |  36 C                |  25 C                |   120.36
   23 C                |  36 C                |  58 H                |   119.83
   25 C                |  36 C                |  58 H                |   119.82
   24 C                |  38 C                |  59 H                |   111.75
   24 C                |  38 C                |  60 H                |   110.81
   24 C                |  38 C                |  61 H                |   110.49
   59 H                |  38 C                |  60 H                |   107.51
   59 H                |  38 C                |  61 H                |   108.39
   60 H                |  38 C                |  61 H                |   107.74
   24 C                |  39 C                |  62 H                |   111.10
   24 C                |  39 C                |  63 H                |   110.38
   24 C                |  39 C                |  64 H                |   111.13
   62 H                |  39 C                |  63 H                |   108.50
   62 H                |  39 C                |  64 H                |   107.81
   63 H                |  39 C                |  64 H                |   107.79
   26 C                |  42 C                |  65 H                |   110.69
   26 C                |  42 C                |  66 H                |   111.25
   26 C                |  42 C                |  67 H                |   109.76
   65 H                |  42 C                |  66 H                |   108.37
   65 H                |  42 C                |  67 H                |   109.37
   66 H                |  42 C                |  67 H                |   107.32
   26 C                |  43 C                |  68 H                |   112.19
   26 C                |  43 C                |  69 H                |   110.52
   26 C                |  43 C                |  70 H                |   110.14
   68 H                |  43 C                |  69 H                |   108.47
   68 H                |  43 C                |  70 H                |   107.44
   69 H                |  43 C                |  70 H                |   107.93
    3 Ni               |  71 N                |  83 C                |   123.31
    3 Ni               |  71 N                |  94 C                |   120.17
   83 C                |  71 N                |  94 C                |   116.48
   73 C                |  72 C                |  75 C                |   120.00
   73 C                |  72 C                |  81 H                |   119.88
   75 C                |  72 C                |  81 H                |   120.12
   72 C                |  73 C                |  76 C                |   119.85
   72 C                |  73 C                |  82 H                |   120.43
   76 C                |  73 C                |  82 H                |   119.72
   72 C                |  75 C                |  74 H                |   119.94
   72 C                |  75 C                |  78 C                |   120.11
   74 H                |  75 C                |  78 C                |   119.93
   73 C                |  76 C                |  77 C                |   120.34
   73 C                |  76 C                |  79 H                |   121.97
   77 C                |  76 C                |  79 H                |   117.68
    1 C                |  77 C                |  76 C                |   116.07
    1 C                |  77 C                |  78 C                |   123.96
   76 C                |  77 C                |  78 C                |   119.79
   75 C                |  78 C                |  77 C                |   119.85
   75 C                |  78 C                |  80 H                |   120.02
   77 C                |  78 C                |  80 H                |   120.13
   71 N                |  83 C                |  84 C                |   123.99
   71 N                |  83 C                |  85 C                |   118.16
   84 C                |  83 C                |  85 C                |   117.84
   83 C                |  84 C                |  86 C                |   120.42
   83 C                |  84 C                |  87 H                |   119.93
   86 C                |  84 C                |  87 H                |   119.65
   83 C                |  85 C                |  88 C                |   121.43
   83 C                |  85 C                |  89 H                |   117.49
   88 C                |  85 C                |  89 H                |   120.99
   84 C                |  86 C                |  90 C                |   120.95
   84 C                |  86 C                |  91 H                |   119.40
   90 C                |  86 C                |  91 H                |   119.66
   85 C                |  88 C                |  90 C                |   120.27
   85 C                |  88 C                |  92 H                |   119.24
   90 C                |  88 C                |  92 H                |   120.45
   86 C                |  90 C                |  88 C                |   119.00
   86 C                |  90 C                |  93 H                |   120.56
   88 C                |  90 C                |  93 H                |   120.44
   71 N                |  94 C                |  95 H                |   115.27
   71 N                |  94 C                |  96 H                |   108.52
   71 N                |  94 C                |  97 H                |   109.51
   95 H                |  94 C                |  96 H                |   108.10
   95 H                |  94 C                |  97 H                |   106.91
   96 H                |  94 C                |  97 H                |   108.33
 ------------------------------------------------------------------------------
                            number of included internuclear angles:        180
 ==============================================================================



                      Basis "ao basis" -> "" (cartesian)
                      -----
  C (Carbon)
  ----------
            Exponent  Coefficients 
       -------------- ---------------------------------------------------------
  1 S  8.50603840E+03  0.000534
  1 S  1.27573290E+03  0.004125
  1 S  2.90311870E+02  0.021171
  1 S  8.20562000E+01  0.082418
  1 S  2.64796410E+01  0.240129

  2 S  9.24145850E+00  1.000000

  3 S  3.36435300E+00  1.000000

  4 S  8.71741640E-01  1.000000

  5 S  3.63523520E-01  1.000000

  6 S  1.28731350E-01  1.000000

  7 P  3.47094960E+01  0.005330
  7 P  7.95908830E+00  0.035866
  7 P  2.37869720E+00  0.142003
  7 P  8.15400650E-01  0.342031

  8 P  2.89537850E-01  1.000000

  9 P  1.00847540E-01  1.000000

  H (Hydrogen)
  ------------
            Exponent  Coefficients 
       -------------- ---------------------------------------------------------
  1 S  3.40613410E+01  0.006025
  1 S  5.12357460E+00  0.045021
  1 S  1.16466260E+00  0.201897

  2 S  3.27230410E-01  1.000000

  3 S  1.03072410E-01  1.000000

  O (Oxygen)
  ----------
            Exponent  Coefficients 
       -------------- ---------------------------------------------------------
  1 S  1.59026475E+04  0.000515
  1 S  2.38495378E+03  0.003982
  1 S  5.42719572E+02  0.020477
  1 S  1.53404079E+02  0.080262
  1 S  4.95457161E+01  0.237668

  2 S  1.73396499E+01  1.000000

  3 S  6.33033553E+00  1.000000

  4 S  1.69958822E+00  1.000000

  5 S  6.89544913E-01  1.000000

  6 S  2.39360282E-01  1.000000

  7 P  6.32705240E+01  0.006071
  7 P  1.46233123E+01  0.041948
  7 P  4.44895180E+00  0.161569
[...]
  ----- ------------  ---------------      ----- ------------  ---------------
   739      1.413619  83 C  s               743      1.190237  83 C  s         
   802     -1.168872  88 C  s               740     -1.101136  83 C  s         
   803      0.906038  88 C  s               806     -0.905707  88 C  s         
   738     -0.829186  83 C  s               742     -0.830617  83 C  s         
   754     -0.832939  84 C  s               741      0.816871  83 C  s         

 Vector  847  Occ=0.000000D+00  E= 6.330953D+01
              MO Center=  1.5D+00,  9.0D-01,  4.9D-01, r^2= 1.1D+01
   Bfn.  Coefficient  Atom+Function         Bfn.  Coefficient  Atom+Function  
  ----- ------------  ---------------      ----- ------------  ---------------
   701      1.458250  77 C  s               697      1.369057  77 C  s         
     6     -1.221528   1 C  s               296     -1.077660  22 C  s         
   698     -1.067689  77 C  s               326      1.059353  24 C  s         
   686      1.057339  76 C  s               292     -0.987563  22 C  s         
   322      0.949499  24 C  s                 2     -0.911045   1 C  s         

 Vector  848  Occ=0.000000D+00  E= 6.331908D+01
              MO Center=  1.9D+00,  3.9D-01,  3.2D-01, r^2= 9.8D+00
   Bfn.  Coefficient  Atom+Function         Bfn.  Coefficient  Atom+Function  
  ----- ------------  ---------------      ----- ------------  ---------------
   712      1.663784  78 C  s               716      1.593709  78 C  s         
   713     -1.298127  78 C  s               682     -1.199331  76 C  s         
   686     -1.106704  76 C  s               715     -1.005950  78 C  s         
   711     -0.975519  78 C  s               714      0.971608  78 C  s         
   683      0.931773  76 C  s               739     -0.726974  83 C  s         

 Vector  849  Occ=0.000000D+00  E= 6.333041D+01
              MO Center= -1.2D-01,  7.7D-01, -6.6D-01, r^2= 1.1D+01
   Bfn.  Coefficient  Atom+Function         Bfn.  Coefficient  Atom+Function  
  ----- ------------  ---------------      ----- ------------  ---------------
     6      2.038616   1 C  s                 2      1.604921   1 C  s         
   701     -1.344782  77 C  s                 3     -1.259944   1 C  s         
     5     -1.125553   1 C  s               352      1.122131  26 C  s         
   266     -1.103085  20 C  s               356      1.079484  26 C  s         
   236     -0.998923  18 C  s               262     -1.000410  20 C  s         

 Vector  850  Occ=0.000000D+00  E= 6.334663D+01
              MO Center=  2.4D+00, -2.9D+00, -9.0D-01, r^2= 3.9D+00
   Bfn.  Coefficient  Atom+Function         Bfn.  Coefficient  Atom+Function  
  ----- ------------  ---------------      ----- ------------  ---------------
   769      1.992241  85 C  s               773      1.940217  85 C  s         
   770     -1.553118  85 C  s               758     -1.427106  84 C  s         
   754     -1.416845  84 C  s               772     -1.199487  85 C  s         
   768     -1.168239  85 C  s               771      1.157644  85 C  s         
   755      1.104908  84 C  s               784      1.067530  86 C  s         

 Vector  851  Occ=0.000000D+00  E= 6.340572D+01
              MO Center= -1.5D+00, -1.2D+00,  7.1D-01, r^2= 9.7D+00
   Bfn.  Coefficient  Atom+Function         Bfn.  Coefficient  Atom+Function  
  ----- ------------  ---------------      ----- ------------  ---------------
   185      2.120836  13 C  s               200     -1.863310  14 C  s         
   143      1.849779   8 C  pz              181      1.549358  13 C  s         
   196     -1.536003  14 C  s               209      1.257323  14 C  pz        
   182     -1.219492  13 C  s               197      1.210354  14 C  s         
   194      1.197432  13 C  pz              296     -1.122931  22 C  s         

 Vector  852  Occ=0.000000D+00  E= 6.341775D+01
              MO Center= -1.5D+00, -1.9D-01,  3.5D-01, r^2= 1.3D+01
   Bfn.  Coefficient  Atom+Function         Bfn.  Coefficient  Atom+Function  
  ----- ------------  ---------------      ----- ------------  ---------------
   134      2.260970   8 C  s               221      1.468447  17 C  s         
   130      1.397966   8 C  s               173     -1.332472  10 C  pz        
   209      1.314534  14 C  pz              200     -1.212842  14 C  s         
   236     -1.141084  18 C  s               245     -1.128183  18 C  pz        
   217      1.113540  17 C  s               131     -1.102601   8 C  s         

 Vector  853  Occ=0.000000D+00  E= 6.342055D+01
              MO Center= -1.3D+00,  1.7D-01,  1.9D-01, r^2= 1.4D+01
   Bfn.  Coefficient  Atom+Function         Bfn.  Coefficient  Atom+Function  
  ----- ------------  ---------------      ----- ------------  ---------------
   134      2.040875   8 C  s               245      1.495441  18 C  pz        
   236      1.434249  18 C  s               173      1.377268  10 C  pz        
   130      1.282979   8 C  s               142     -1.216644   8 C  py        
   164     -1.160543  10 C  s               194     -1.125706  13 C  pz        
   232      1.069916  18 C  s               281     -1.026221  21 C  s         

 Vector  854  Occ=0.000000D+00  E= 6.344129D+01
              MO Center= -4.4D-01,  2.7D+00, -1.5D-01, r^2= 7.0D+00
   Bfn.  Coefficient  Atom+Function         Bfn.  Coefficient  Atom+Function  
  ----- ------------  ---------------      ----- ------------  ---------------
   164      2.843321  10 C  s               160      1.784384  10 C  s         
   161     -1.408895  10 C  s               163     -1.264186  10 C  s         
   311     -1.223113  23 C  s               341     -1.204958  25 C  s         
   230      1.197356  17 C  pz              221     -1.188442  17 C  s         
   172      1.148365  10 C  py              337     -1.125916  25 C  s         

 Vector  855  Occ=0.000000D+00  E= 6.356226D+01
              MO Center=  3.3D+00, -3.6D-01, -1.5D-02, r^2= 7.4D+00
   Bfn.  Coefficient  Atom+Function         Bfn.  Coefficient  Atom+Function  
  ----- ------------  ---------------      ----- ------------  ---------------
   716     -2.309174  78 C  s               701      2.194870  77 C  s         
   671      1.960316  75 C  s               638     -1.912552  72 C  s         
   653      1.916981  73 C  s               686     -1.847609  76 C  s         
   743      1.574033  83 C  s               773     -1.503484  85 C  s         
   806      1.423569  88 C  s               758     -1.351398  84 C  s         

 Vector  856  Occ=0.000000D+00  E= 6.356899D+01
              MO Center=  2.6D+00, -2.0D+00, -4.3D-01, r^2= 8.7D+00
   Bfn.  Coefficient  Atom+Function         Bfn.  Coefficient  Atom+Function  
  ----- ------------  ---------------      ----- ------------  ---------------
   743      2.066126  83 C  s               773     -1.949752  85 C  s         
   806      1.843950  88 C  s               824     -1.805810  90 C  s         
   788      1.788603  86 C  s               758     -1.715417  84 C  s         
   701     -1.602556  77 C  s               716      1.463294  78 C  s         
   671     -1.352924  75 C  s               686      1.304495  76 C  s         

 Vector  857  Occ=0.000000D+00  E= 6.359015D+01
              MO Center= -1.6D+00, -2.7D+00,  8.2D-01, r^2= 4.8D+00
   Bfn.  Coefficient  Atom+Function         Bfn.  Coefficient  Atom+Function  
  ----- ------------  ---------------      ----- ------------  ---------------
   134      3.413088   8 C  s               200     -2.917862  14 C  s         
   185     -2.899965  13 C  s               281      2.642186  21 C  s         
   251      2.548688  19 C  s               371     -2.412699  27 C  s         
   142     -2.194443   8 C  py              209      1.608624  14 C  pz        
   194     -1.541354  13 C  pz              130      1.347360   8 C  s         

 Vector  858  Occ=0.000000D+00  E= 6.360133D+01
              MO Center= -3.4D-01,  3.6D+00, -2.7D-01, r^2= 2.9D+00
   Bfn.  Coefficient  Atom+Function         Bfn.  Coefficient  Atom+Function  
  ----- ------------  ---------------      ----- ------------  ---------------
   164      3.647327  10 C  s               236     -3.155466  18 C  s         
   221     -2.972151  17 C  s               311      2.714005  23 C  s         
   341      2.693566  25 C  s               458     -2.526586  36 C  s         
   230      2.113369  17 C  pz              172      1.938955  10 C  py        
   350      1.530648  25 C  pz              245     -1.498374  18 C  pz        

 Vector  859  Occ=0.000000D+00  E= 8.881608D+01
              MO Center= -1.9D+00,  3.9D-01,  7.5D-01, r^2= 1.2D+00
   Bfn.  Coefficient  Atom+Function         Bfn.  Coefficient  Atom+Function  
  ----- ------------  ---------------      ----- ------------  ---------------
    85      2.361117   5 N  s               142     -2.061082   8 C  py        
    86     -1.839229   5 N  s               100     -1.824175   6 N  s         
    89      1.669708   5 N  s               101      1.420815   6 N  s         
    84      1.386724   5 N  s               104     -1.316631   6 N  s         
    87      1.300889   5 N  s                88     -1.256029   5 N  s         

 Vector  860  Occ=0.000000D+00  E= 8.886368D+01
              MO Center= -1.5D+00,  6.2D-01,  3.8D-01, r^2= 3.1D+00
   Bfn.  Coefficient  Atom+Function         Bfn.  Coefficient  Atom+Function  
  ----- ------------  ---------------      ----- ------------  ---------------
   100      2.200034   6 N  s                85      1.758880   5 N  s         
   101     -1.718607   6 N  s               104      1.598146   6 N  s         
    86     -1.374054   5 N  s                99      1.290778   6 N  s         
   172      1.261360  10 C  py              102      1.230083   6 N  s         
    89      1.222543   5 N  s               103     -1.194136   6 N  s         

 Vector  861  Occ=0.000000D+00  E= 8.888694D+01
              MO Center=  8.4D-01, -1.1D+00, -1.6D+00, r^2= 2.3D+00
   Bfn.  Coefficient  Atom+Function         Bfn.  Coefficient  Atom+Function  
  ----- ------------  ---------------      ----- ------------  ---------------
   619      2.808041  71 N  s               620     -2.184911  71 N  s         
   623      1.680226  71 N  s               618      1.649940  71 N  s         
   621      1.536733  71 N  s               622     -1.449515  71 N  s         
   751     -0.883355  83 C  py              100      0.877150   6 N  s         
   101     -0.686070   6 N  s               750      0.631539  83 C  px        

 Vector  862  Occ=0.000000D+00  E= 1.171419D+02
              MO Center=  1.2D-01, -4.5D-01, -7.5D-01, r^2= 3.7D-02
   Bfn.  Coefficient  Atom+Function         Bfn.  Coefficient  Atom+Function  
  ----- ------------  ---------------      ----- ------------  ---------------
    38      0.906276   3 Ni pz               36      0.457592   3 Ni px        
    41     -0.345594   3 Ni pz               37     -0.321175   3 Ni py        
    45     -0.309049   3 Ni px              671      0.254868  75 C  s         
   725     -0.247297  78 C  pz               82      0.244541   4 C  py        
   723     -0.241201  78 C  px               35     -0.197566   3 Ni s         

 Vector  863  Occ=0.000000D+00  E= 1.172293D+02
              MO Center=  1.2D-01, -4.5D-01, -7.5D-01, r^2= 3.5D-02
   Bfn.  Coefficient  Atom+Function         Bfn.  Coefficient  Atom+Function  
  ----- ------------  ---------------      ----- ------------  ---------------
    37      1.014829   3 Ni py               40     -0.393285   3 Ni py        
    74     -0.332259   4 C  s                 6     -0.283345   1 C  s         
   142      0.265237   8 C  py               38      0.263881   3 Ni pz        
    43      0.219867   3 Ni py              134     -0.216008   8 C  s         
   709     -0.212533  77 C  py              708     -0.208520  77 C  px        

 Vector  864  Occ=0.000000D+00  E= 1.172797D+02
              MO Center=  1.2D-01, -4.5D-01, -7.5D-01, r^2= 3.5D-02
   Bfn.  Coefficient  Atom+Function         Bfn.  Coefficient  Atom+Function  
  ----- ------------  ---------------      ----- ------------  ---------------
    36      0.943762   3 Ni px               38     -0.493724   3 Ni pz        
    35     -0.429976   3 Ni s                39     -0.369109   3 Ni px        
   709     -0.305298  77 C  py              686      0.285275  76 C  s         
   142      0.266622   8 C  py               81      0.261377   4 C  px        
   200      0.246917  14 C  s                82     -0.243622   4 C  py        

 Vector  865  Occ=0.000000D+00  E= 1.186814D+02
              MO Center=  1.3D+00,  1.4D+00, -2.2D+00, r^2= 5.7D-02
   Bfn.  Coefficient  Atom+Function         Bfn.  Coefficient  Atom+Function  
  ----- ------------  ---------------      ----- ------------  ---------------
    17      2.979362   2 O  s                18     -2.300343   2 O  s         
    16     -1.757335   2 O  s                19      1.514906   2 O  s         
    20     -1.252967   2 O  s                21      1.045345   2 O  s         
     6     -0.665005   1 C  s                14     -0.461379   1 C  py        
    15      0.431563   1 C  pz               34     -0.409932   3 Ni s         

 Vector  866  Occ=0.000000D+00  E= 6.702843D+02
              MO Center=  1.2D-01, -4.5D-01, -7.5D-01, r^2= 2.5D-02
   Bfn.  Coefficient  Atom+Function         Bfn.  Coefficient  Atom+Function  
  ----- ------------  ---------------      ----- ------------  ---------------
    32     28.696403   3 Ni s                33    -15.137400   3 Ni s         
    51     -7.282262   3 Ni dxx              54     -7.282547   3 Ni dyy       
    56     -7.283329   3 Ni dzz              31     -4.262350   3 Ni s         
    57      3.305699   3 Ni dxx              60      3.306774   3 Ni dyy       
    62      3.309491   3 Ni dzz              34      0.831065   3 Ni s         


 center of mass
 --------------
 x =   0.05975264 y =  -0.01770660 z =  -0.03353132

 moments of inertia (a.u.)
 ------------------
       24698.006759938191          -0.000000000001          -0.000000000000
          -0.000000000001       21130.648927700899          -0.000000000001
          -0.000000000000          -0.000000000001       29524.019682106475

     Multipole analysis of the density
     ---------------------------------

     L   x y z        total         alpha         beta         nuclear
     -   - - -        -----         -----         ----         -------
     0   0 0 0      0.000000   -172.000000   -172.000000    344.000000

     1   1 0 0     -2.014665      0.103188      0.103188     -2.221041
     1   0 1 0      0.560709     -3.951446     -3.951446      8.463601
     1   0 0 1      1.840504     -6.151665     -6.151665     14.143834

     2   2 0 0   -207.067219  -3715.999864  -3715.999864   7224.932509
     2   1 1 0      5.104621      0.263293      0.263293      4.578035
     2   1 0 1      3.702783    -47.226703    -47.226703     98.156188
     2   0 2 0   -209.903316  -4663.886487  -4663.886487   9117.869657
     2   0 1 1     -1.376631      2.561309      2.561309     -6.499250
     2   0 0 2   -212.037840  -2472.466868  -2472.466868   4732.895896


 Task  times  cpu:     2287.8s     wall:     2287.8s


                                NWChem Input Module
                                -------------------


 Summary of allocated global arrays
-----------------------------------
  No active global arrays


MA_summarize_allocated_blocks: starting scan ...
heap block 'gridpts', handle 111, address 0x612ee820ea60:
	type of elements:		double precision
	number of elements:		203677164
	address of client space:	0x612ee820eac0
	index for client space:		19994675
	total number of bytes:		1629417416
MA_summarize_allocated_blocks: scan completed: 1 heap block, 0 stack blocks
MA usage statistics:

	allocation statistics:
					      heap	     stack
					      ----	     -----
	current number of blocks	         1	         0
	maximum number of blocks	        37	        58
	current total bytes		1629417416	         0
	maximum total bytes		1649038120	  58363624
	maximum total K-bytes		   1649039	     58364
	maximum total M-bytes		      1650	        59


                                     CITATION
                                     --------
                Please cite the following reference when publishing
                           results obtained with NWChem:

          E. Apra, E. J. Bylaska, W. A. de Jong, N. Govind, K. Kowalski,
       T. P. Straatsma, M. Valiev, H. J. J. van Dam, Y. Alexeev, J. Anchell,
       V. Anisimov, F. W. Aquino, R. Atta-Fynn, J. Autschbach, N. P. Bauman,
     J. C. Becca, D. E. Bernholdt, K. Bhaskaran-Nair, S. Bogatko, P. Borowski,
         J. Boschen, J. Brabec, A. Bruner, E. Cauet, Y. Chen, G. N. Chuev,
      C. J. Cramer, J. Daily, M. J. O. Deegan, T. H. Dunning Jr., M. Dupuis,
   K. G. Dyall, G. I. Fann, S. A. Fischer, A. Fonari, H. Fruchtl, L. Gagliardi,
      J. Garza, N. Gawande, S. Ghosh, K. Glaesemann, A. W. Gotz, J. Hammond,
       V. Helms, E. D. Hermes, K. Hirao, S. Hirata, M. Jacquelin, L. Jensen,
   B. G. Johnson, H. Jonsson, R. A. Kendall, M. Klemm, R. Kobayashi, V. Konkov,
      S. Krishnamoorthy, M. Krishnan, Z. Lin, R. D. Lins, R. J. Littlefield,
      A. J. Logsdail, K. Lopata, W. Ma, A. V. Marenich, J. Martin del Campo,
   D. Mejia-Rodriguez, J. E. Moore, J. M. Mullin, T. Nakajima, D. R. Nascimento,
    J. A. Nichols, P. J. Nichols, J. Nieplocha, A. Otero-de-la-Roza, B. Palmer,
    A. Panyala, T. Pirojsirikul, B. Peng, R. Peverati, J. Pittner, L. Pollack,
   R. M. Richard, P. Sadayappan, G. C. Schatz, W. A. Shelton, D. W. Silverstein,
   D. M. A. Smith, T. A. Soares, D. Song, M. Swart, H. L. Taylor, G. S. Thomas,
            V. Tipparaju, D. G. Truhlar, K. Tsemekhman, T. Van Voorhis,
      A. Vazquez-Mayagoitia, P. Verma, O. Villa, A. Vishnu, K. D. Vogiatzis,
        D. Wang, J. H. Weare, M. J. Williamson, T. L. Windus, K. Wolinski,
        A. T. Wong, Q. Wu, C. Yang, Q. Yu, M. Zacharias, Z. Zhang, Y. Zhao,
                                and R. J. Harrison
                        "NWChem: Past, present, and future
                         J. Chem. Phys. 152, 184102 (2020)
                               doi:10.1063/5.0004997

                                      AUTHORS
                                      -------
  E. Apra, E. J. Bylaska, N. Govind, K. Kowalski, M. Valiev, D. Mejia-Rodriguez,
       A. Kunitsa, N. P. Bauman, A. Panyala, W. A. de Jong, T. P. Straatsma,
   H. J. J. van Dam, D. Wang, T. L. Windus, J. Hammond, J. Autschbach, A. Woods,
    K. Bhaskaran-Nair, J. Brabec, K. Lopata, S. A. Fischer, S. Krishnamoorthy,
     M. Jacquelin, W. Ma, M. Klemm, O. Villa, Y. Chen, V. Anisimov, F. Aquino,
     S. Hirata, M. T. Hackler, E. Hermes, L. Jensen, J. E. Moore, J. C. Becca,
      V. Konjkov, T. Risthaus, M. Malagoli, A. Marenich, A. Otero-de-la-Roza,
        J. Mullin, P. Nichols, R. Peverati, J. Pittner, Y. Zhao, P.-D. Fan,
        A. Fonari, M. J. Williamson, R. J. Harrison, J. R. Rehr, M. Dupuis,
     D. Silverstein, D. M. A. Smith, J. Nieplocha, V. Tipparaju, M. Krishnan,
     B. E. Van Kuiken, A. Vazquez-Mayagoitia, M. Swart, Q. Wu, T. Van Voorhis,
     A. A. Auer, M. Nooijen, L. D. Crosby, E. Brown, G. Cisneros, G. I. Fann,
   H. Fruchtl, J. Garza, K. Hirao, R. A. Kendall, J. A. Nichols, K. Tsemekhman,
    K. Wolinski, J. Anchell, D. E. Bernholdt, P. Borowski, T. Clark, D. Clerc,
   H. Dachsel, M. J. O. Deegan, K. Dyall, D. Elwood, E. Glendening, M. Gutowski,
   A. C. Hess, J. Jaffe, B. G. Johnson, J. Ju, R. Kobayashi, R. Kutteh, Z. Lin,
   R. Littlefield, X. Long, B. Meng, T. Nakajima, S. Niu, L. Pollack, M. Rosing,
   K. Glaesemann, G. Sandrone, M. Stave, H. Taylor, G. Thomas, J. H. van Lenthe,
                               A. T. Wong, Z. Zhang.

 Total times  cpu:     2288.3s     wall:     2288.3s
