 argument  1 = nwchem.in
  NWChem w/ OpenMP: maximum threads =    1
                                         
                                         


             Northwest Computational Chemistry Package (NWChem) 7.2.3
             --------------------------------------------------------


                    Environmental Molecular Sciences Laboratory
                       Pacific Northwest National Laboratory
                                Richland, WA 99352

                              Copyright (c) 1994-2022
                       Pacific Northwest National Laboratory
                            Battelle Memorial Institute

             NWChem is an open-source computational chemistry package
                        distributed under the terms of the
                      Educational Community License (ECL) 2.0
             A copy of the license is included with this distribution
                              in the LICENSE.TXT file

                                  ACKNOWLEDGMENT
                                  --------------

            This software and its documentation were developed at the
            EMSL at Pacific Northwest National Laboratory, a multiprogram
            national laboratory, operated for the U.S. Department of Energy
            by Battelle under Contract Number DE-AC05-76RL01830. Support
            for this work was provided by the Department of Energy Office
            of Biological and Environmental Research, Office of Basic
            Energy Sciences, and the Office of Advanced Scientific Computing.


           Job information
           ---------------

    hostname        = 894556f2efbd
    program         = nwchem
    date            = Wed Jul  2 19:34:44 2025

    compiled        = Fri_May_02_22:05:35_2025
    source          = /opt/nwchem
    nwchem branch   = 7.2.3
    nwchem revision = N/A
    ga revision     = 5.9.1
    use scalapack   = T
    input           = nwchem.in
    prefix          = ni_singlepoint.
    data base       = ./ni_singlepoint.db
    status          = startup
    nproc           =        5
    time left       =     -1s



           Memory information
           ------------------

    heap     =    509724438 doubles =     3888.9 Mbytes
    stack    =    509724439 doubles =     3888.9 Mbytes
    global   =    291271111 doubles =     2222.2 Mbytes (distinct from heap & stack)
    total    =   1310719988 doubles =    10000.0 Mbytes
    verify   = yes
    hardfail = no 


           Directory information
           ---------------------

  0 permanent = .
  0 scratch   = .




                                NWChem Input Module
                                -------------------


                          Ni complex single-point energy
                          ------------------------------

 Scaling coordinates for geometry "geometry" by  1.889725989
 (inverse scale =  0.529177249)

 C1  symmetry detected

          ------
          auto-z
          ------
  no constraints, skipping    0.0000000000000000     
  no constraints, skipping    0.0000000000000000     


                             Geometry "geometry" -> ""
                             -------------------------

 Output coordinates in angstroms (scale by  1.889725989 to convert to a.u.)

  No.       Tag          Charge          X              Y              Z
 ---- ---------------- ---------- -------------- -------------- --------------
    1 C                    6.0000     1.82448831     0.38867766    -1.49973076
    2 O                    8.0000     1.57833320     1.20251527    -2.40156140
    3 Ni                  28.0000     0.15396388    -0.34681691    -0.65393104
    4 C                    6.0000    -1.29841023     0.33808771     0.28815321
    5 N                    7.0000    -2.23799902    -0.48158387     0.80836619
    6 N                    7.0000    -1.71838519     1.59358653     0.50945475
    7 C                    6.0000    -3.32090764     0.21446322     1.50002471
    8 C                    6.0000    -2.07896312    -1.89804585     0.81518432
    9 C                    6.0000    -3.05758776     1.66968985     1.09754191
   10 C                    6.0000    -1.01809923     2.76385277     0.08458086
   11 H                    1.0000    -4.29506617    -0.14660038     1.16627598
   12 H                    1.0000    -3.25274602     0.06071001     2.58180089
   13 C                    6.0000    -2.59598310    -2.64054795    -0.25172582
   14 C                    6.0000    -1.38721886    -2.50467029     1.86941146
   15 H                    1.0000    -3.77500197     2.02889813     0.35409801
   16 H                    1.0000    -3.07180370     2.35665954     1.94459354
   17 C                    6.0000    -0.25442033     3.45757191     1.02713729
   18 C                    6.0000    -1.12806292     3.19191579    -1.24228999
   19 C                    6.0000    -2.37531319    -4.01386191    -0.26370126
   20 C                    6.0000    -3.38129407    -1.98728155    -1.37122277
   21 C                    6.0000    -1.19802543    -3.88194417     1.82392096
   22 C                    6.0000    -0.85622331    -1.70433665     3.04217569
   23 C                    6.0000     0.43490601     4.58966738     0.60757063
   24 C                    6.0000    -0.16530355     3.01176974     2.47338274
   25 C                    6.0000    -0.42099436     4.32749346    -1.61922732
   26 C                    6.0000    -2.02990946     2.49007532    -2.23860154
   27 C                    6.0000    -1.67794748    -4.63061804     0.76149012
   28 H                    1.0000    -2.75100978    -4.60822524    -1.08792487
   29 C                    6.0000    -4.82158746    -2.50363209    -1.39647509
   30 C                    6.0000    -2.69812964    -2.18222566    -2.72455269
   31 H                    1.0000    -3.40945484    -0.91424188    -1.17370222
   32 H                    1.0000    -0.66087777    -4.37447954     2.62585620
   33 C                    6.0000     0.65264759    -1.87996814     3.20956776
   34 C                    6.0000    -1.60135362    -2.07534540     4.32675610
   35 H                    1.0000    -1.03292272    -0.64711997     2.83582267
   36 C                    6.0000     0.35804519     5.01817554    -0.70619911
   37 H                    1.0000     1.04481667     5.13754576     1.31602014
   38 C                    6.0000    -0.73312515     4.07651502     3.41471141
   39 C                    6.0000     1.26986269     2.64857730     2.84960982
   40 H                    1.0000    -0.76752601     2.10726368     2.58372396
   41 H                    1.0000    -0.47540616     4.67365027    -2.64352447
   42 C                    6.0000    -1.34095866     2.23898517    -3.57959824
   43 C                    6.0000    -3.31714898     3.29740713    -2.43880301
   44 H                    1.0000    -2.29403475     1.51601166    -1.82100596
   45 H                    1.0000    -1.51116659    -5.70024502     0.73435084
   46 H                    1.0000    -5.31289891    -2.35499347    -0.43298760
   47 H                    1.0000    -4.85184117    -3.57155337    -1.62244527
   48 H                    1.0000    -5.40069400    -1.98334858    -2.16150405
   49 H                    1.0000    -1.68575900    -1.77529521    -2.70359787
   50 H                    1.0000    -3.25813265    -1.67333042    -3.51172624
   51 H                    1.0000    -2.63746764    -3.24047858    -2.98904440
   52 H                    1.0000     1.17549780    -1.58379551     2.29968414
   53 H                    1.0000     0.91118524    -2.91747697     3.43370240
   54 H                    1.0000     1.01810008    -1.26033914     4.03100110
   55 H                    1.0000    -2.67923244    -1.94239358     4.21471374
   56 H                    1.0000    -1.26278959    -1.45746495     5.16040322
   57 H                    1.0000    -1.42407555    -3.12051372     4.58983081
   58 H                    1.0000     0.90634230     5.89746965    -1.02076494
   59 H                    1.0000    -1.76346681     4.33043041     3.15713818
   60 H                    1.0000    -0.14541561     4.99537050     3.36443547
   61 H                    1.0000    -0.71306333     3.72443256     4.44807105
   62 H                    1.0000     1.66315521     1.87999245     2.18419314
   63 H                    1.0000     1.31536814     2.27791558     3.87655243
   64 H                    1.0000     1.92679113     3.51832453     2.77901936
   65 H                    1.0000    -0.38287461     1.74051583    -3.43574394
   66 H                    1.0000    -1.16123137     3.17503552    -4.11376307
   67 H                    1.0000    -1.98115077     1.62280898    -4.21554893
   68 H                    1.0000    -3.83463871     3.48186712    -1.49513730
   69 H                    1.0000    -4.00043790     2.77307756    -3.11022971
   70 H                    1.0000    -3.08884518     4.26947407    -2.88229423
   71 N                    7.0000     1.56021904    -1.02897868    -1.77128694
   72 C                    6.0000     4.51340543     1.77166788     1.56520399
   73 C                    6.0000     4.13465296     2.56899639     0.49453331
   74 H                    1.0000     4.26243520    -0.13539231     2.51806153
   75 C                    6.0000     3.99008342     0.49133922     1.67769943
   76 C                    6.0000     3.26108733     2.08232503    -0.46405133
   77 C                    6.0000     2.74854823     0.78674205    -0.37475856
   78 C                    6.0000     3.10981630     0.00359030     0.72297778
   79 H                    1.0000     2.95756602     2.68899068    -1.30610063
   80 H                    1.0000     2.71080265    -0.99085760     0.84731672
   81 H                    1.0000     5.20411541     2.14674820     2.30980374
   82 H                    1.0000     4.52561928     3.57455699     0.39954622
   83 C                    6.0000     2.39622330    -2.10012166    -1.28547155
   84 C                    6.0000     3.70135792    -2.21671780    -1.74194019
   85 C                    6.0000     1.86790730    -3.04759854    -0.42082200
   86 C                    6.0000     4.48708987    -3.27731853    -1.31655787
   87 H                    1.0000     4.09594696    -1.47203477    -2.42277954
   88 C                    6.0000     2.66136209    -4.10068608     0.01237592
   89 H                    1.0000     0.84322648    -2.93785551    -0.07885074
   90 C                    6.0000     3.97066691    -4.21763456    -0.43488961
   91 H                    1.0000     5.50391506    -3.37057025    -1.67533912
   92 H                    1.0000     2.25368672    -4.83035128     0.70094932
   93 H                    1.0000     4.58710366    -5.04242070    -0.10142626
   94 C                    6.0000     1.15026589    -1.28959638    -3.16576603
   95 H                    1.0000     2.01018354    -1.20292692    -3.83446572
   96 H                    1.0000     0.74728729    -2.29988615    -3.21771607
   97 H                    1.0000     0.40069365    -0.56658259    -3.46826725

      Atomic Mass 
      ----------- 

      C                 12.000000
      O                 15.994910
      Ni                57.935300
      N                 14.003070
      H                  1.007825


 Effective nuclear repulsion energy (a.u.)    7256.7702411538

            Nuclear Dipole moment (a.u.) 
            ----------------------------
        X                 Y               Z
 ---------------- ---------------- ----------------
     0.0000000000    -0.0000000000    -0.0000000000



                                Z-matrix (autoz)
                                -------- 

 Units are Angstrom for bonds and degrees for angles

      Type          Name      I     J     K     L     M      Value
      ----------- --------  ----- ----- ----- ----- ----- ----------
    1 Stretch                  1     2                       1.23944
    2 Stretch                  1     3                       2.01171
    3 Stretch                  1    71                       1.46742
    4 Stretch                  1    77                       1.50927
    5 Stretch                  3     4                       1.86172
    6 Stretch                  3    71                       1.92130
    7 Stretch                  4     5                       1.35104
    8 Stretch                  4     6                       1.34225
    9 Stretch                  5     7                       1.46136
   10 Stretch                  5     8                       1.42538
   11 Stretch                  6     9                       1.46462
   12 Stretch                  6    10                       1.42844
   13 Stretch                  7     9                       1.53265
   14 Stretch                  7    11                       1.09121
   15 Stretch                  7    12                       1.09477
   16 Stretch                  8    13                       1.39890
   17 Stretch                  8    14                       1.39925
   18 Stretch                  9    15                       1.09381
   19 Stretch                  9    16                       1.09070
   20 Stretch                 10    17                       1.39745
   21 Stretch                 10    18                       1.39854
   22 Stretch                 13    19                       1.39098
   23 Stretch                 13    20                       1.51550
   24 Stretch                 14    21                       1.39095
   25 Stretch                 14    22                       1.51587
   26 Stretch                 17    23                       1.39027
   27 Stretch                 17    24                       1.51602
   28 Stretch                 18    25                       1.38981
   29 Stretch                 18    26                       1.51609
   30 Stretch                 19    27                       1.38482
   31 Stretch                 19    28                       1.08340
   32 Stretch                 20    29                       1.53026
   33 Stretch                 20    30                       1.52847
   34 Stretch                 20    31                       1.09143
   35 Stretch                 21    27                       1.38550
   36 Stretch                 21    32                       1.08361
   37 Stretch                 22    33                       1.52825
   38 Stretch                 22    34                       1.53069
   39 Stretch                 22    35                       1.09156
   40 Stretch                 23    36                       1.38402
   41 Stretch                 23    37                       1.08354
   42 Stretch                 24    38                       1.53043
   43 Stretch                 24    39                       1.52747
   44 Stretch                 24    40                       1.09224
   45 Stretch                 25    36                       1.38476
   46 Stretch                 25    41                       1.08258
   47 Stretch                 26    42                       1.52839
   48 Stretch                 26    43                       1.53260
   49 Stretch                 26    44                       1.09222
   50 Stretch                 27    45                       1.08289
   51 Stretch                 29    46                       1.09169
   52 Stretch                 29    47                       1.09199
   53 Stretch                 29    48                       1.09148
   54 Stretch                 30    49                       1.09130
   55 Stretch                 30    50                       1.09189
   56 Stretch                 30    51                       1.09249
   57 Stretch                 33    52                       1.09040
   58 Stretch                 33    53                       1.09248
   59 Stretch                 33    54                       1.09190
   60 Stretch                 34    55                       1.09181
   61 Stretch                 34    56                       1.09150
   62 Stretch                 34    57                       1.09225
   63 Stretch                 36    58                       1.08293
   64 Stretch                 38    59                       1.09198
   65 Stretch                 38    60                       1.09189
   66 Stretch                 38    61                       1.09188
   67 Stretch                 39    62                       1.09004
   68 Stretch                 39    63                       1.09274
   69 Stretch                 39    64                       1.09224
   70 Stretch                 42    65                       1.08954
   71 Stretch                 42    66                       1.09262
   72 Stretch                 42    67                       1.09268
   73 Stretch                 43    68                       1.09194
   74 Stretch                 43    69                       1.09207
   75 Stretch                 43    70                       1.09258
   76 Stretch                 71    83                       1.44301
   77 Stretch                 71    94                       1.47667
   78 Stretch                 72    73                       1.38763
   79 Stretch                 72    75                       1.38772
   80 Stretch                 72    81                       1.08268
   81 Stretch                 73    76                       1.38523
   82 Stretch                 73    82                       1.08306
   83 Stretch                 74    75                       1.08313
   84 Stretch                 75    78                       1.38718
   85 Stretch                 76    77                       1.39614
   86 Stretch                 76    79                       1.08130
   87 Stretch                 77    78                       1.39602
   88 Stretch                 78    80                       1.07870
   89 Stretch                 83    84                       1.38756
   90 Stretch                 83    85                       1.38725
   91 Stretch                 84    86                       1.38679
   92 Stretch                 84    87                       1.08342
   93 Stretch                 85    88                       1.38788
   94 Stretch                 85    89                       1.08580
   95 Stretch                 86    90                       1.38861
   96 Stretch                 86    91                       1.08229
   97 Stretch                 88    90                       1.38853
   98 Stretch                 88    92                       1.08293
   99 Stretch                 90    93                       1.08234
  100 Stretch                 94    95                       1.09276
  101 Stretch                 94    96                       1.08893
  102 Stretch                 94    97                       1.08449
  103 Bend                     1     3     4               136.55763
  104 Bend                     1     3    71                43.73903
  105 Bend                     1    71     3                71.40845
  106 Bend                     1    71    83               123.40042
  107 Bend                     1    71    94               113.28204
  108 Bend                     1    77    76               114.95105
  109 Bend                     1    77    78               126.62650
  110 Bend                     2     1     3               112.39927
  111 Bend                     2     1    71               117.64107
  112 Bend                     2     1    77               119.39025
  113 Bend                     3     1    71                64.85252
  114 Bend                     3     1    77               106.94540
  115 Bend                     3     4     5               120.94333
  116 Bend                     3     4     6               132.19333
  117 Bend                     3    71    83               119.45923
  118 Bend                     3    71    94               114.12059
  119 Bend                     4     5     7               114.11845
  120 Bend                     4     5     8               121.81297
  121 Bend                     4     6     9               113.63454
  122 Bend                     4     6    10               124.32458
  123 Bend                     5     4     6               106.64262
  124 Bend                     5     7     9               101.57416
  125 Bend                     5     7    11               111.04991
  126 Bend                     5     7    12               110.77198
  127 Bend                     5     8    13               118.85345
  128 Bend                     5     8    14               119.31341
  129 Bend                     6     9     7               102.31012
  130 Bend                     6     9    15               110.11305
  131 Bend                     6     9    16               110.88408
  132 Bend                     6    10    17               118.29349
  133 Bend                     6    10    18               119.63072
  134 Bend                     7     5     8               123.62387
  135 Bend                     7     9    15               112.18598
  136 Bend                     7     9    16               113.06927
  137 Bend                     8    13    19               118.16210
  138 Bend                     8    13    20               121.74308
  139 Bend                     8    14    21               118.15606
  140 Bend                     8    14    22               121.81445
  141 Bend                     9     6    10               121.67677
  142 Bend                     9     7    11               112.78212
  143 Bend                     9     7    12               112.46632
  144 Bend                    10    17    23               118.14076
  145 Bend                    10    17    24               121.97765
  146 Bend                    10    18    25               117.86591
  147 Bend                    10    18    26               121.90816
  148 Bend                    11     7    12               108.13960
  149 Bend                    13     8    14               121.81806
  150 Bend                    13    19    27               120.87911
  151 Bend                    13    19    28               119.54956
  152 Bend                    13    20    29               110.76037
  153 Bend                    13    20    30               111.55955
  154 Bend                    13    20    31               107.66661
  155 Bend                    14    21    27               120.86490
  156 Bend                    14    21    32               119.55648
  157 Bend                    14    22    33               111.71019
  158 Bend                    14    22    34               110.53484
  159 Bend                    14    22    35               107.96268
  160 Bend                    15     9    16               108.20758
  161 Bend                    17    10    18               122.06928
  162 Bend                    17    23    36               120.73381
  163 Bend                    17    23    37               119.57181
  164 Bend                    17    24    38               111.12321
  165 Bend                    17    24    39               111.10778
  166 Bend                    17    24    40               107.90754
  167 Bend                    18    25    36               120.99255
  168 Bend                    18    25    41               119.49232
  169 Bend                    18    26    42               112.61247
  170 Bend                    18    26    43               109.97462
  171 Bend                    18    26    44               107.78467
  172 Bend                    19    13    20               120.09454
  173 Bend                    19    27    21               120.09648
  174 Bend                    19    27    45               119.92850
  175 Bend                    20    29    46               111.28952
  176 Bend                    20    29    47               111.06835
  177 Bend                    20    29    48               110.49339
  178 Bend                    20    30    49               110.49186
  179 Bend                    20    30    50               110.46548
  180 Bend                    20    30    51               111.26745
  181 Bend                    21    14    22               120.02873
  182 Bend                    21    27    45               119.97456
  183 Bend                    22    33    52               110.53668
  184 Bend                    22    33    53               111.42384
  185 Bend                    22    33    54               110.34260
  186 Bend                    22    34    55               111.40424
  187 Bend                    22    34    56               110.65625
  188 Bend                    22    34    57               110.79667
  189 Bend                    23    17    24               119.88145
  190 Bend                    23    36    25               120.17804
  191 Bend                    23    36    58               119.93420
  192 Bend                    24    38    59               111.51656
  193 Bend                    24    38    60               110.94320
  194 Bend                    24    38    61               110.54582
  195 Bend                    24    39    62               110.87308
  196 Bend                    24    39    63               110.56434
  197 Bend                    24    39    64               111.09082
  198 Bend                    25    18    26               120.17519
  199 Bend                    25    36    58               119.88755
  200 Bend                    26    42    65               110.83639
  201 Bend                    26    42    66               111.24446
  202 Bend                    26    42    67               109.82758
  203 Bend                    26    43    68               111.97146
  204 Bend                    26    43    69               110.66549
  205 Bend                    26    43    70               110.25443
  206 Bend                    27    19    28               119.57096
  207 Bend                    27    21    32               119.57656
  208 Bend                    29    20    30               111.28669
  209 Bend                    29    20    31               108.08588
  210 Bend                    30    20    31               107.28724
  211 Bend                    33    22    34               111.15204
  212 Bend                    33    22    35               106.96799
  213 Bend                    34    22    35               108.33672
  214 Bend                    36    23    37               119.69274
  215 Bend                    36    25    41               119.51406
  216 Bend                    38    24    39               111.25551
  217 Bend                    38    24    40               108.02516
  218 Bend                    39    24    40               107.23309
  219 Bend                    42    26    43               110.51989
  220 Bend                    42    26    44               107.33474
  221 Bend                    43    26    44               108.45872
  222 Bend                    46    29    47               107.65705
  223 Bend                    46    29    48               108.35570
  224 Bend                    47    29    48               107.84421
  225 Bend                    49    30    50               108.41125
  226 Bend                    49    30    51               108.32097
  227 Bend                    50    30    51               107.78249
  228 Bend                    52    33    53               108.40144
  229 Bend                    52    33    54               108.24787
  230 Bend                    53    33    54               107.78080
  231 Bend                    55    34    56               108.40122
  232 Bend                    55    34    57               107.54612
  233 Bend                    56    34    57               107.90151
  234 Bend                    59    38    60               107.53738
  235 Bend                    59    38    61               108.39414
  236 Bend                    60    38    61               107.76074
  237 Bend                    62    39    63               108.63264
  238 Bend                    62    39    64               107.75859
  239 Bend                    63    39    64               107.80618
  240 Bend                    65    42    66               108.17064
  241 Bend                    65    42    67               109.51504
  242 Bend                    66    42    67               107.15414
  243 Bend                    68    43    69               108.41632
  244 Bend                    68    43    70               107.42930
  245 Bend                    69    43    70               107.95957
  246 Bend                    71     1    77               120.19859
  247 Bend                    71    83    84               119.77220
  248 Bend                    71    83    85               119.74805
  249 Bend                    71    94    95               110.20696
  250 Bend                    71    94    96               108.15169
  251 Bend                    71    94    97               109.73253
  252 Bend                    72    73    76               120.27798
  253 Bend                    72    73    82               120.17338
  254 Bend                    72    75    74               120.12728
  255 Bend                    72    75    78               120.52496
  256 Bend                    73    72    75               119.32399
  257 Bend                    73    72    81               120.37887
  258 Bend                    73    76    77               120.88248
  259 Bend                    73    76    79               121.25138
  260 Bend                    74    75    78               119.34682
  261 Bend                    75    72    81               120.29542
  262 Bend                    75    78    77               120.54131
  263 Bend                    75    78    80               118.65579
  264 Bend                    76    73    82               119.54746
  265 Bend                    76    77    78               118.41623
  266 Bend                    77    76    79               117.86557
  267 Bend                    77    78    80               120.80288
  268 Bend                    83    71    94               110.35039
  269 Bend                    83    84    86               119.75417
  270 Bend                    83    84    87               119.44221
  271 Bend                    83    85    88               119.67331
  272 Bend                    83    85    89               119.12219
  273 Bend                    84    83    85               120.38884
  274 Bend                    84    86    90               120.12791
  275 Bend                    84    86    91               119.77010
  276 Bend                    85    88    90               120.16218
  277 Bend                    85    88    92               119.63640
  278 Bend                    86    84    87               120.80238
  279 Bend                    86    90    88               119.87892
  280 Bend                    86    90    93               119.98893
  281 Bend                    88    85    89               121.19191
  282 Bend                    88    90    93               120.13148
  283 Bend                    90    86    91               120.10193
  284 Bend                    90    88    92               120.20142
  285 Bend                    95    94    96               109.60929
  286 Bend                    95    94    97               108.68317
  287 Bend                    96    94    97               110.45363
  288 Torsion                  1     3     4     5        -175.41316
  289 Torsion                  1     3     4     6          10.76346
  290 Torsion                  1     3    71    83         118.49257
  291 Torsion                  1     3    71    94        -107.83651
  292 Torsion                  1    71     4     5        -170.70224
  293 Torsion                  1    71     4     6          19.37739
  294 Torsion                  4     3     1    71        -172.48535
  295 Torsion                  1    71    83    84         -65.48499
  296 Torsion                  1    71    83    85         117.96795
  297 Torsion                  1    71    94    95          73.72217
  298 Torsion                  1    71    94    96        -166.47518
  299 Torsion                  1    71    94    97         -45.92524
  300 Torsion                  1    77    76    73        -179.20634
  301 Torsion                  1    77    76    79           0.52471
  302 Torsion                  1    77    78    75         178.99462
  303 Torsion                  1    77    78    80          -1.06711
  304 Torsion                  2     1     3     4         -61.33307
  305 Torsion                  2     1     3    71         111.15227
  306 Torsion                  2     1    71     3        -103.25838
  307 Torsion                  2     1    71    83         143.18027
  308 Torsion                  2     1    71    94           5.68536
  309 Torsion                  2     1    77    76          -0.22909
  310 Torsion                  2     1    77    78         178.84266
  311 Torsion                  3     1    71    83        -113.56136
  312 Torsion                  3     1    71    94         108.94374
  313 Torsion                  3     1    77    76        -129.19158
  314 Torsion                  3     1    77    78          49.88017
  315 Torsion                  3     4     5     7        -179.12810
  316 Torsion                  3     4     5     8           8.26423
  317 Torsion                  3     4     6     9         169.04296
  318 Torsion                  3     4     6    10          -4.10906
  319 Torsion                  3    71     1    77          95.70048
  320 Torsion                  3    71    83    84        -151.69185
  321 Torsion                  3    71    83    85          31.76109
  322 Torsion                  3    71    94    95         152.90827
  323 Torsion                  3    71    94    96         -87.28908
  324 Torsion                  3    71    94    97          33.26086
  325 Torsion                  4     3     1    77          71.54773
  326 Torsion                  4     5     7     9          10.68746
  327 Torsion                  4     5     7    11         130.84296
  328 Torsion                  4     5     7    12        -108.97382
  329 Torsion                  4     5     8    13         -92.38721
  330 Torsion                  4     5     8    14          86.22621
  331 Torsion                  4     6     9     7          11.67527
  332 Torsion                  4     6     9    15        -107.76497
  333 Torsion                  4     6     9    16         132.50757
  334 Torsion                  4     6    10    17        -100.88155
  335 Torsion                  4     6    10    18          80.02768
  336 Torsion                  5     4    71    83         -52.19499
  337 Torsion                  5     4    71    94          80.83374
  338 Torsion                  4     5     3    71        -167.45514
  339 Torsion                  5     4     6     9          -5.43002
  340 Torsion                  5     4     6    10        -178.58204
  341 Torsion                  5     7     9     6         -12.30729
  342 Torsion                  5     7     9    15         105.66859
  343 Torsion                  5     7     9    16        -131.61645
  344 Torsion                  5     8    13    19         176.87886
  345 Torsion                  5     8    13    20          -3.31565
  346 Torsion                  5     8    14    21        -177.37971
  347 Torsion                  5     8    14    22           2.93832
  348 Torsion                  6     4    71    83         137.88463
  349 Torsion                  6     4    71    94         -89.08664
  350 Torsion                  4     6     3    71         165.82496
  351 Torsion                  6     4     5     7          -3.90060
  352 Torsion                  6     4     5     8        -176.50827
  353 Torsion                  6     9     7    11        -131.23300
  354 Torsion                  6     9     7    12         106.14539
  355 Torsion                  6    10    17    23         179.46564
  356 Torsion                  6    10    17    24          -0.67078
  357 Torsion                  6    10    18    25        -179.39273
  358 Torsion                  6    10    18    26           3.19484
  359 Torsion                  7     5     8    13          95.72000
  360 Torsion                  7     5     8    14         -85.66658
  361 Torsion                  7     9     6    10        -174.96926
  362 Torsion                  8     5     7     9        -176.85740
  363 Torsion                  8     5     7    11         -56.70190
  364 Torsion                  8     5     7    12          63.48132
  365 Torsion                  8    13    19    27           0.82442
  366 Torsion                  8    13    19    28        -178.95360
  367 Torsion                  8    13    20    29        -116.35867
  368 Torsion                  8    13    20    30         119.08436
  369 Torsion                  8    13    20    31           1.62146
  370 Torsion                  8    14    21    27           0.20525
  371 Torsion                  8    14    21    32         179.68049
  372 Torsion                  8    14    22    33        -122.60758
  373 Torsion                  8    14    22    34         113.06736
  374 Torsion                  8    14    22    35          -5.26590
  375 Torsion                  9     6    10    17          86.49305
  376 Torsion                  9     6    10    18         -92.59772
  377 Torsion                 10     6     9    15          65.59050
  378 Torsion                 10     6     9    16         -54.13696
  379 Torsion                 10    17    23    36           0.35183
  380 Torsion                 10    17    23    37        -179.18022
  381 Torsion                 10    17    24    38        -117.60265
  382 Torsion                 10    17    24    39         117.94457
  383 Torsion                 10    17    24    40           0.65591
  384 Torsion                 10    18    25    36          -0.52942
  385 Torsion                 10    18    25    41         179.09353
  386 Torsion                 10    18    26    42        -133.90986
  387 Torsion                 10    18    26    43         102.35063
  388 Torsion                 10    18    26    44         -15.70861
  389 Torsion                 11     7     9    15         -13.25712
  390 Torsion                 11     7     9    16         109.45784
  391 Torsion                 12     7     9    15        -135.87874
  392 Torsion                 12     7     9    16         -13.16378
  393 Torsion                 13     8    14    21           1.19106
  394 Torsion                 13     8    14    22        -178.49090
  395 Torsion                 13    19    27    21           0.52159
  396 Torsion                 13    19    27    45        -179.72567
  397 Torsion                 13    20    29    46          55.87728
  398 Torsion                 13    20    29    47         -64.05455
  399 Torsion                 13    20    29    48         176.30536
  400 Torsion                 13    20    30    49         -57.91144
  401 Torsion                 13    20    30    50        -177.86900
  402 Torsion                 13    20    30    51          62.45722
  403 Torsion                 14     8    13    19          -1.69828
  404 Torsion                 14     8    13    20         178.10720
  405 Torsion                 14    21    27    19          -1.05210
  406 Torsion                 14    21    27    45         179.19528
  407 Torsion                 14    22    33    52          57.77211
  408 Torsion                 14    22    33    53         -62.83223
  409 Torsion                 14    22    33    54         177.47564
  410 Torsion                 14    22    34    55         -55.88953
  411 Torsion                 14    22    34    56        -176.56159
  412 Torsion                 14    22    34    57          63.79656
  413 Torsion                 17    10    18    25           1.55204
  414 Torsion                 17    10    18    26        -175.86039
  415 Torsion                 17    23    36    25           0.62827
  416 Torsion                 17    23    36    58        -179.53701
  417 Torsion                 17    24    38    59          56.33619
  418 Torsion                 17    24    38    60         -63.51177
  419 Torsion                 17    24    38    61         176.99947
  420 Torsion                 17    24    39    62         -56.42071
  421 Torsion                 17    24    39    63        -176.96948
  422 Torsion                 17    24    39    64          63.37691
  423 Torsion                 18    10    17    23          -1.46700
  424 Torsion                 18    10    17    24         178.39658
  425 Torsion                 18    25    36    23          -0.53649
  426 Torsion                 18    25    36    58         179.62871
  427 Torsion                 18    26    42    65          51.69129
  428 Torsion                 18    26    42    66         -68.70382
  429 Torsion                 18    26    42    67         172.83478
  430 Torsion                 18    26    43    68         -55.63122
  431 Torsion                 18    26    43    69        -176.71296
  432 Torsion                 18    26    43    70          63.91665
  433 Torsion                 19    13    20    29          63.44312
  434 Torsion                 19    13    20    30         -61.11385
  435 Torsion                 19    13    20    31        -178.57675
  436 Torsion                 19    27    21    32         179.47277
  437 Torsion                 20    13    19    27        -178.98439
  438 Torsion                 20    13    19    28           1.23759
  439 Torsion                 21    14    22    33          57.71630
  440 Torsion                 21    14    22    34         -66.60877
  441 Torsion                 21    14    22    35         175.05798
  442 Torsion                 21    27    19    28        -179.70044
  443 Torsion                 22    14    21    27         179.89310
  444 Torsion                 22    14    21    32          -0.63166
  445 Torsion                 23    17    24    38          62.25861
  446 Torsion                 23    17    24    39         -62.19418
  447 Torsion                 23    17    24    40        -179.48283
  448 Torsion                 23    36    25    41         179.84064
  449 Torsion                 24    17    23    36        -179.51471
  450 Torsion                 24    17    23    37           0.95325
  451 Torsion                 25    18    26    42          48.73627
  452 Torsion                 25    18    26    43         -75.00325
  453 Torsion                 25    18    26    44         166.93752
  454 Torsion                 25    36    23    37        -179.84025
  455 Torsion                 26    18    25    36         176.92972
  456 Torsion                 26    18    25    41          -3.44732
  457 Torsion                 28    19    27    45           0.05230
  458 Torsion                 29    20    30    49         177.82691
  459 Torsion                 29    20    30    50          57.86935
  460 Torsion                 29    20    30    51         -61.80443
  461 Torsion                 30    20    29    46        -179.41075
  462 Torsion                 30    20    29    47          60.65742
  463 Torsion                 30    20    29    48         -58.98268
  464 Torsion                 31    20    29    46         -61.84693
  465 Torsion                 31    20    29    47         178.22124
  466 Torsion                 31    20    29    48          58.58115
  467 Torsion                 31    20    30    49          59.78016
  468 Torsion                 31    20    30    50         -60.17739
  469 Torsion                 31    20    30    51        -179.85118
  470 Torsion                 32    21    27    45          -0.27986
  471 Torsion                 33    22    34    55         179.46644
  472 Torsion                 33    22    34    56          58.79438
  473 Torsion                 33    22    34    57         -60.84746
  474 Torsion                 34    22    33    52        -178.24922
  475 Torsion                 34    22    33    53          61.14644
  476 Torsion                 34    22    33    54         -58.54570
  477 Torsion                 35    22    33    52         -60.16719
  478 Torsion                 35    22    33    53         179.22847
  479 Torsion                 35    22    33    54          59.53634
  480 Torsion                 35    22    34    55          62.21523
  481 Torsion                 35    22    34    56         -58.45683
  482 Torsion                 35    22    34    57        -178.09867
  483 Torsion                 37    23    36    58          -0.00553
  484 Torsion                 38    24    39    62         179.20137
  485 Torsion                 38    24    39    63          58.65260
  486 Torsion                 38    24    39    64         -61.00102
  487 Torsion                 39    24    38    59        -179.29460
  488 Torsion                 39    24    38    60          60.85744
  489 Torsion                 39    24    38    61         -58.63132
  490 Torsion                 40    24    38    59         -61.85131
  491 Torsion                 40    24    38    60         178.30073
  492 Torsion                 40    24    38    61          58.81197
  493 Torsion                 40    24    39    62          61.27831
  494 Torsion                 40    24    39    63         -59.27046
  495 Torsion                 40    24    39    64        -178.92407
  496 Torsion                 41    25    36    58           0.00584
  497 Torsion                 42    26    43    68         179.41875
  498 Torsion                 42    26    43    69          58.33702
  499 Torsion                 42    26    43    70         -61.03338
  500 Torsion                 43    26    42    65         175.12794
  501 Torsion                 43    26    42    66          54.73283
  502 Torsion                 43    26    42    67         -63.72857
  503 Torsion                 44    26    42    65         -66.77402
  504 Torsion                 44    26    42    66         172.83087
  505 Torsion                 44    26    42    67          54.36947
  506 Torsion                 44    26    43    68          62.01051
  507 Torsion                 44    26    43    69         -59.07123
  508 Torsion                 44    26    43    70        -178.44163
  509 Torsion                 71     1    77    76         160.48250
  510 Torsion                 71     1    77    78         -20.44575
  511 Torsion                 71     3     1    77        -115.96692
  512 Torsion                 71    83    84    86        -177.38920
  513 Torsion                 71    83    84    87           3.01303
  514 Torsion                 71    83    85    88         177.98774
  515 Torsion                 71    83    85    89          -3.28716
  516 Torsion                 72    73    76    77          -0.11296
  517 Torsion                 72    73    76    79        -179.83483
  518 Torsion                 72    75    78    77           0.76815
  519 Torsion                 72    75    78    80        -179.17143
  520 Torsion                 73    72    75    74        -178.85660
  521 Torsion                 73    72    75    78           0.79071
  522 Torsion                 73    76    77    78           1.64067
  523 Torsion                 74    75    72    81           0.66769
  524 Torsion                 74    75    78    77        -179.58181
  525 Torsion                 74    75    78    80           0.47862
  526 Torsion                 75    72    73    76          -1.11568
  527 Torsion                 75    72    73    82         179.28205
  528 Torsion                 75    78    77    76          -1.96230
  529 Torsion                 76    73    72    81         179.36044
  530 Torsion                 76    77    78    80         177.97597
  531 Torsion                 77     1    71    83         -17.86087
  532 Torsion                 77     1    71    94        -155.35577
  533 Torsion                 77    76    73    82         179.49179
  534 Torsion                 78    75    72    81        -179.68500
  535 Torsion                 78    77    76    79        -178.62828
  536 Torsion                 79    76    73    82          -0.23008
  537 Torsion                 81    72    73    82          -0.24183
  538 Torsion                  4     3    83    71         171.94786
  539 Torsion                 83    71    94    95         -69.29196
  540 Torsion                 83    71    94    96          50.51068
  541 Torsion                 83    71    94    97         171.06062
  542 Torsion                 83    84    86    90          -0.13493
  543 Torsion                 83    84    86    91         179.77096
  544 Torsion                 83    85    88    90          -1.06405
  545 Torsion                 83    85    88    92         178.93444
  546 Torsion                 84    83    71    94          73.06593
  547 Torsion                 84    83    85    88           1.46230
  548 Torsion                 84    83    85    89        -179.81260
  549 Torsion                 84    86    90    88           0.52789
  550 Torsion                 84    86    90    93        -179.76825
  551 Torsion                 85    83    71    94        -103.48114
  552 Torsion                 85    83    84    86          -0.86459
  553 Torsion                 85    83    84    87         179.53764
  554 Torsion                 85    88    90    86           0.07428
  555 Torsion                 85    88    90    93        -179.62915
  556 Torsion                 86    90    88    92        -179.92420
  557 Torsion                 87    84    86    90         179.45726
  558 Torsion                 87    84    86    91          -0.63685
  559 Torsion                 88    90    86    91        -179.37768
  560 Torsion                 89    85    88    90        -179.76210
  561 Torsion                 89    85    88    92           0.23639
  562 Torsion                 91    86    90    93           0.32618
  563 Torsion                 92    88    90    93           0.37237
  564 Torsion                  4     3    94    71         178.05747


            XYZ format geometry
            -------------------
    97
 geometry
 C                     1.82448831     0.38867766    -1.49973076
 O                     1.57833320     1.20251527    -2.40156140
 Ni                    0.15396388    -0.34681691    -0.65393104
 C                    -1.29841023     0.33808771     0.28815321
 N                    -2.23799902    -0.48158387     0.80836619
 N                    -1.71838519     1.59358653     0.50945475
 C                    -3.32090764     0.21446322     1.50002471
 C                    -2.07896312    -1.89804585     0.81518432
 C                    -3.05758776     1.66968985     1.09754191
 C                    -1.01809923     2.76385277     0.08458086
 H                    -4.29506617    -0.14660038     1.16627598
 H                    -3.25274602     0.06071001     2.58180089
 C                    -2.59598310    -2.64054795    -0.25172582
 C                    -1.38721886    -2.50467029     1.86941146
 H                    -3.77500197     2.02889813     0.35409801
 H                    -3.07180370     2.35665954     1.94459354
 C                    -0.25442033     3.45757191     1.02713729
 C                    -1.12806292     3.19191579    -1.24228999
 C                    -2.37531319    -4.01386191    -0.26370126
 C                    -3.38129407    -1.98728155    -1.37122277
 C                    -1.19802543    -3.88194417     1.82392096
 C                    -0.85622331    -1.70433665     3.04217569
 C                     0.43490601     4.58966738     0.60757063
 C                    -0.16530355     3.01176974     2.47338274
 C                    -0.42099436     4.32749346    -1.61922732
 C                    -2.02990946     2.49007532    -2.23860154
 C                    -1.67794748    -4.63061804     0.76149012
 H                    -2.75100978    -4.60822524    -1.08792487
 C                    -4.82158746    -2.50363209    -1.39647509
 C                    -2.69812964    -2.18222566    -2.72455269
 H                    -3.40945484    -0.91424188    -1.17370222
 H                    -0.66087777    -4.37447954     2.62585620
 C                     0.65264759    -1.87996814     3.20956776
 C                    -1.60135362    -2.07534540     4.32675610
 H                    -1.03292272    -0.64711997     2.83582267
 C                     0.35804519     5.01817554    -0.70619911
 H                     1.04481667     5.13754576     1.31602014
 C                    -0.73312515     4.07651502     3.41471141
 C                     1.26986269     2.64857730     2.84960982
 H                    -0.76752601     2.10726368     2.58372396
 H                    -0.47540616     4.67365027    -2.64352447
 C                    -1.34095866     2.23898517    -3.57959824
 C                    -3.31714898     3.29740713    -2.43880301
 H                    -2.29403475     1.51601166    -1.82100596
 H                    -1.51116659    -5.70024502     0.73435084
 H                    -5.31289891    -2.35499347    -0.43298760
 H                    -4.85184117    -3.57155337    -1.62244527
 H                    -5.40069400    -1.98334858    -2.16150405
 H                    -1.68575900    -1.77529521    -2.70359787
 H                    -3.25813265    -1.67333042    -3.51172624
 H                    -2.63746764    -3.24047858    -2.98904440
 H                     1.17549780    -1.58379551     2.29968414
 H                     0.91118524    -2.91747697     3.43370240
 H                     1.01810008    -1.26033914     4.03100110
 H                    -2.67923244    -1.94239358     4.21471374
 H                    -1.26278959    -1.45746495     5.16040322
 H                    -1.42407555    -3.12051372     4.58983081
 H                     0.90634230     5.89746965    -1.02076494
 H                    -1.76346681     4.33043041     3.15713818
 H                    -0.14541561     4.99537050     3.36443547
 H                    -0.71306333     3.72443256     4.44807105
 H                     1.66315521     1.87999245     2.18419314
 H                     1.31536814     2.27791558     3.87655243
 H                     1.92679113     3.51832453     2.77901936
 H                    -0.38287461     1.74051583    -3.43574394
 H                    -1.16123137     3.17503552    -4.11376307
 H                    -1.98115077     1.62280898    -4.21554893
 H                    -3.83463871     3.48186712    -1.49513730
 H                    -4.00043790     2.77307756    -3.11022971
 H                    -3.08884518     4.26947407    -2.88229423
 N                     1.56021904    -1.02897868    -1.77128694
 C                     4.51340543     1.77166788     1.56520399
 C                     4.13465296     2.56899639     0.49453331
 H                     4.26243520    -0.13539231     2.51806153
 C                     3.99008342     0.49133922     1.67769943
 C                     3.26108733     2.08232503    -0.46405133
 C                     2.74854823     0.78674205    -0.37475856
 C                     3.10981630     0.00359030     0.72297778
 H                     2.95756602     2.68899068    -1.30610063
 H                     2.71080265    -0.99085760     0.84731672
 H                     5.20411541     2.14674820     2.30980374
 H                     4.52561928     3.57455699     0.39954622
 C                     2.39622330    -2.10012166    -1.28547155
 C                     3.70135792    -2.21671780    -1.74194019
 C                     1.86790730    -3.04759854    -0.42082200
 C                     4.48708987    -3.27731853    -1.31655787
 H                     4.09594696    -1.47203477    -2.42277954
 C                     2.66136209    -4.10068608     0.01237592
 H                     0.84322648    -2.93785551    -0.07885074
 C                     3.97066691    -4.21763456    -0.43488961
 H                     5.50391506    -3.37057025    -1.67533912
 H                     2.25368672    -4.83035128     0.70094932
 H                     4.58710366    -5.04242070    -0.10142626
 C                     1.15026589    -1.28959638    -3.16576603
 H                     2.01018354    -1.20292692    -3.83446572
 H                     0.74728729    -2.29988615    -3.21771607
 H                     0.40069365    -0.56658259    -3.46826725

 ==============================================================================
                                internuclear distances
 ------------------------------------------------------------------------------
       center one      |      center two      | atomic units |  angstroms
 ------------------------------------------------------------------------------
    2 O                |   1 C                |     2.34221  |     1.23944
    3 Ni               |   1 C                |     3.80158  |     2.01171
    4 C                |   3 Ni               |     3.51814  |     1.86172
    5 N                |   4 C                |     2.55310  |     1.35104
    6 N                |   4 C                |     2.53648  |     1.34225
    7 C                |   5 N                |     2.76156  |     1.46136
    8 C                |   5 N                |     2.69357  |     1.42538
    9 C                |   6 N                |     2.76772  |     1.46462
    9 C                |   7 C                |     2.89629  |     1.53265
   10 C                |   6 N                |     2.69936  |     1.42844
   11 H                |   7 C                |     2.06209  |     1.09121
   12 H                |   7 C                |     2.06882  |     1.09477
   13 C                |   8 C                |     2.64353  |     1.39890
   14 C                |   8 C                |     2.64420  |     1.39925
   15 H                |   9 C                |     2.06700  |     1.09381
   16 H                |   9 C                |     2.06112  |     1.09070
   17 C                |  10 C                |     2.64080  |     1.39745
   18 C                |  10 C                |     2.64286  |     1.39854
   19 C                |  13 C                |     2.62857  |     1.39098
   20 C                |  13 C                |     2.86388  |     1.51550
   21 C                |  14 C                |     2.62852  |     1.39095
   22 C                |  14 C                |     2.86458  |     1.51587
   23 C                |  17 C                |     2.62723  |     1.39027
   24 C                |  17 C                |     2.86486  |     1.51602
   25 C                |  18 C                |     2.62635  |     1.38981
   26 C                |  18 C                |     2.86500  |     1.51609
   27 C                |  19 C                |     2.61693  |     1.38482
   27 C                |  21 C                |     2.61821  |     1.38550
   28 H                |  19 C                |     2.04733  |     1.08340
   29 C                |  20 C                |     2.89178  |     1.53026
   30 C                |  20 C                |     2.88839  |     1.52847
   31 H                |  20 C                |     2.06251  |     1.09143
   32 H                |  21 C                |     2.04773  |     1.08361
   33 C                |  22 C                |     2.88798  |     1.52825
   34 C                |  22 C                |     2.89259  |     1.53069
   35 H                |  22 C                |     2.06276  |     1.09156
   36 C                |  23 C                |     2.61542  |     1.38402
   36 C                |  25 C                |     2.61682  |     1.38476
   37 H                |  23 C                |     2.04760  |     1.08354
   38 C                |  24 C                |     2.89209  |     1.53043
   39 C                |  24 C                |     2.88650  |     1.52747
   40 H                |  24 C                |     2.06403  |     1.09224
   41 H                |  25 C                |     2.04577  |     1.08258
   42 C                |  26 C                |     2.88824  |     1.52839
   43 C                |  26 C                |     2.89619  |     1.53260
   44 H                |  26 C                |     2.06400  |     1.09222
   45 H                |  27 C                |     2.04637  |     1.08289
   46 H                |  29 C                |     2.06300  |     1.09169
   47 H                |  29 C                |     2.06355  |     1.09199
   48 H                |  29 C                |     2.06260  |     1.09148
   49 H                |  30 C                |     2.06225  |     1.09130
   50 H                |  30 C                |     2.06337  |     1.09189
   51 H                |  30 C                |     2.06451  |     1.09249
   52 H                |  33 C                |     2.06056  |     1.09040
   53 H                |  33 C                |     2.06448  |     1.09248
   54 H                |  33 C                |     2.06339  |     1.09190
   55 H                |  34 C                |     2.06322  |     1.09181
   56 H                |  34 C                |     2.06263  |     1.09150
   57 H                |  34 C                |     2.06406  |     1.09225
   58 H                |  36 C                |     2.04644  |     1.08293
   59 H                |  38 C                |     2.06354  |     1.09198
   60 H                |  38 C                |     2.06337  |     1.09189
   61 H                |  38 C                |     2.06335  |     1.09188
   62 H                |  39 C                |     2.05987  |     1.09004
   63 H                |  39 C                |     2.06497  |     1.09274
   64 H                |  39 C                |     2.06404  |     1.09224
   65 H                |  42 C                |     2.05893  |     1.08954
   66 H                |  42 C                |     2.06476  |     1.09262
   67 H                |  42 C                |     2.06487  |     1.09268
   68 H                |  43 C                |     2.06346  |     1.09194
   69 H                |  43 C                |     2.06371  |     1.09207
   70 H                |  43 C                |     2.06467  |     1.09258
   71 N                |   1 C                |     2.77303  |     1.46742
   71 N                |   3 Ni               |     3.63073  |     1.92130
   73 C                |  72 C                |     2.62224  |     1.38763
   75 C                |  72 C                |     2.62241  |     1.38772
   75 C                |  74 H                |     2.04682  |     1.08313
   76 C                |  73 C                |     2.61770  |     1.38523
   77 C                |   1 C                |     2.85211  |     1.50927
   77 C                |  76 C                |     2.63832  |     1.39614
   78 C                |  75 C                |     2.62139  |     1.38718
   78 C                |  77 C                |     2.63809  |     1.39602
   79 H                |  76 C                |     2.04337  |     1.08130
   80 H                |  78 C                |     2.03845  |     1.07870
   81 H                |  72 C                |     2.04597  |     1.08268
   82 H                |  73 C                |     2.04670  |     1.08306
   83 C                |  71 N                |     2.72689  |     1.44301
   84 C                |  83 C                |     2.62212  |     1.38756
   85 C                |  83 C                |     2.62151  |     1.38725
   86 C                |  84 C                |     2.62066  |     1.38679
   87 H                |  84 C                |     2.04736  |     1.08342
   88 C                |  85 C                |     2.62272  |     1.38788
   89 H                |  85 C                |     2.05186  |     1.08580
   90 C                |  86 C                |     2.62408  |     1.38861
   90 C                |  88 C                |     2.62393  |     1.38853
   91 H                |  86 C                |     2.04523  |     1.08229
   92 H                |  88 C                |     2.04645  |     1.08293
   93 H                |  90 C                |     2.04533  |     1.08234
   94 C                |  71 N                |     2.79050  |     1.47667
   95 H                |  94 C                |     2.06502  |     1.09276
   96 H                |  94 C                |     2.05779  |     1.08893
   97 H                |  94 C                |     2.04939  |     1.08449
 ------------------------------------------------------------------------------
                         number of included internuclear distances:        102
 ==============================================================================



 ==============================================================================
                                 internuclear angles
 ------------------------------------------------------------------------------
        center 1       |       center 2       |       center 3       |  degrees
 ------------------------------------------------------------------------------
    2 O                |   1 C                |   3 Ni               |   112.40
    2 O                |   1 C                |  71 N                |   117.64
    2 O                |   1 C                |  77 C                |   119.39
    1 C                |  71 N                |   3 Ni               |    71.41
    3 Ni               |   1 C                |  77 C                |   106.95
   71 N                |   1 C                |  77 C                |   120.20
    1 C                |   3 Ni               |   4 C                |   136.56
    3 Ni               |  71 N                |   1 C                |    71.41
    4 C                |   3 Ni               |  71 N                |   174.81
    3 Ni               |   4 C                |   5 N                |   120.94
    3 Ni               |   4 C                |   6 N                |   132.19
    5 N                |   4 C                |   6 N                |   106.64
    4 C                |   5 N                |   7 C                |   114.12
    4 C                |   5 N                |   8 C                |   121.81
    7 C                |   5 N                |   8 C                |   123.62
    4 C                |   6 N                |   9 C                |   113.63
    4 C                |   6 N                |  10 C                |   124.32
    9 C                |   6 N                |  10 C                |   121.68
    5 N                |   7 C                |   9 C                |   101.57
    5 N                |   7 C                |  11 H                |   111.05
    5 N                |   7 C                |  12 H                |   110.77
    9 C                |   7 C                |  11 H                |   112.78
    9 C                |   7 C                |  12 H                |   112.47
   11 H                |   7 C                |  12 H                |   108.14
    5 N                |   8 C                |  13 C                |   118.85
    5 N                |   8 C                |  14 C                |   119.31
   13 C                |   8 C                |  14 C                |   121.82
    6 N                |   9 C                |   7 C                |   102.31
    6 N                |   9 C                |  15 H                |   110.11
    6 N                |   9 C                |  16 H                |   110.88
    7 C                |   9 C                |  15 H                |   112.19
    7 C                |   9 C                |  16 H                |   113.07
   15 H                |   9 C                |  16 H                |   108.21
    6 N                |  10 C                |  17 C                |   118.29
    6 N                |  10 C                |  18 C                |   119.63
   17 C                |  10 C                |  18 C                |   122.07
    8 C                |  13 C                |  19 C                |   118.16
    8 C                |  13 C                |  20 C                |   121.74
   19 C                |  13 C                |  20 C                |   120.09
    8 C                |  14 C                |  21 C                |   118.16
    8 C                |  14 C                |  22 C                |   121.81
   21 C                |  14 C                |  22 C                |   120.03
   10 C                |  17 C                |  23 C                |   118.14
   10 C                |  17 C                |  24 C                |   121.98
   23 C                |  17 C                |  24 C                |   119.88
   10 C                |  18 C                |  25 C                |   117.87
   10 C                |  18 C                |  26 C                |   121.91
   25 C                |  18 C                |  26 C                |   120.18
   13 C                |  19 C                |  27 C                |   120.88
   13 C                |  19 C                |  28 H                |   119.55
   27 C                |  19 C                |  28 H                |   119.57
   13 C                |  20 C                |  29 C                |   110.76
   13 C                |  20 C                |  30 C                |   111.56
   13 C                |  20 C                |  31 H                |   107.67
   29 C                |  20 C                |  30 C                |   111.29
   29 C                |  20 C                |  31 H                |   108.09
   30 C                |  20 C                |  31 H                |   107.29
   14 C                |  21 C                |  27 C                |   120.86
   14 C                |  21 C                |  32 H                |   119.56
   27 C                |  21 C                |  32 H                |   119.58
   14 C                |  22 C                |  33 C                |   111.71
   14 C                |  22 C                |  34 C                |   110.53
   14 C                |  22 C                |  35 H                |   107.96
   33 C                |  22 C                |  34 C                |   111.15
   33 C                |  22 C                |  35 H                |   106.97
   34 C                |  22 C                |  35 H                |   108.34
   17 C                |  23 C                |  36 C                |   120.73
   17 C                |  23 C                |  37 H                |   119.57
   36 C                |  23 C                |  37 H                |   119.69
   17 C                |  24 C                |  38 C                |   111.12
   17 C                |  24 C                |  39 C                |   111.11
   17 C                |  24 C                |  40 H                |   107.91
   38 C                |  24 C                |  39 C                |   111.26
   38 C                |  24 C                |  40 H                |   108.03
   39 C                |  24 C                |  40 H                |   107.23
   18 C                |  25 C                |  36 C                |   120.99
   18 C                |  25 C                |  41 H                |   119.49
   36 C                |  25 C                |  41 H                |   119.51
   18 C                |  26 C                |  42 C                |   112.61
   18 C                |  26 C                |  43 C                |   109.97
   18 C                |  26 C                |  44 H                |   107.78
   42 C                |  26 C                |  43 C                |   110.52
   42 C                |  26 C                |  44 H                |   107.33
   43 C                |  26 C                |  44 H                |   108.46
   19 C                |  27 C                |  21 C                |   120.10
   19 C                |  27 C                |  45 H                |   119.93
   21 C                |  27 C                |  45 H                |   119.97
   20 C                |  29 C                |  46 H                |   111.29
   20 C                |  29 C                |  47 H                |   111.07
   20 C                |  29 C                |  48 H                |   110.49
   46 H                |  29 C                |  47 H                |   107.66
   46 H                |  29 C                |  48 H                |   108.36
   47 H                |  29 C                |  48 H                |   107.84
   20 C                |  30 C                |  49 H                |   110.49
   20 C                |  30 C                |  50 H                |   110.47
   20 C                |  30 C                |  51 H                |   111.27
   49 H                |  30 C                |  50 H                |   108.41
   49 H                |  30 C                |  51 H                |   108.32
   50 H                |  30 C                |  51 H                |   107.78
   22 C                |  33 C                |  52 H                |   110.54
   22 C                |  33 C                |  53 H                |   111.42
   22 C                |  33 C                |  54 H                |   110.34
   52 H                |  33 C                |  53 H                |   108.40
   52 H                |  33 C                |  54 H                |   108.25
   53 H                |  33 C                |  54 H                |   107.78
   22 C                |  34 C                |  55 H                |   111.40
   22 C                |  34 C                |  56 H                |   110.66
   22 C                |  34 C                |  57 H                |   110.80
   55 H                |  34 C                |  56 H                |   108.40
   55 H                |  34 C                |  57 H                |   107.55
   56 H                |  34 C                |  57 H                |   107.90
   23 C                |  36 C                |  25 C                |   120.18
   23 C                |  36 C                |  58 H                |   119.93
   25 C                |  36 C                |  58 H                |   119.89
   24 C                |  38 C                |  59 H                |   111.52
   24 C                |  38 C                |  60 H                |   110.94
   24 C                |  38 C                |  61 H                |   110.55
   59 H                |  38 C                |  60 H                |   107.54
   59 H                |  38 C                |  61 H                |   108.39
   60 H                |  38 C                |  61 H                |   107.76
   24 C                |  39 C                |  62 H                |   110.87
   24 C                |  39 C                |  63 H                |   110.56
   24 C                |  39 C                |  64 H                |   111.09
   62 H                |  39 C                |  63 H                |   108.63
   62 H                |  39 C                |  64 H                |   107.76
   63 H                |  39 C                |  64 H                |   107.81
   26 C                |  42 C                |  65 H                |   110.84
   26 C                |  42 C                |  66 H                |   111.24
   26 C                |  42 C                |  67 H                |   109.83
   65 H                |  42 C                |  66 H                |   108.17
   65 H                |  42 C                |  67 H                |   109.52
   66 H                |  42 C                |  67 H                |   107.15
   26 C                |  43 C                |  68 H                |   111.97
   26 C                |  43 C                |  69 H                |   110.67
   26 C                |  43 C                |  70 H                |   110.25
   68 H                |  43 C                |  69 H                |   108.42
   68 H                |  43 C                |  70 H                |   107.43
   69 H                |  43 C                |  70 H                |   107.96
    1 C                |  71 N                |   3 Ni               |    71.41
    1 C                |  71 N                |  83 C                |   123.40
    1 C                |  71 N                |  94 C                |   113.28
    3 Ni               |  71 N                |  83 C                |   119.46
    3 Ni               |  71 N                |  94 C                |   114.12
   83 C                |  71 N                |  94 C                |   110.35
   73 C                |  72 C                |  75 C                |   119.32
   73 C                |  72 C                |  81 H                |   120.38
   75 C                |  72 C                |  81 H                |   120.30
   72 C                |  73 C                |  76 C                |   120.28
   72 C                |  73 C                |  82 H                |   120.17
   76 C                |  73 C                |  82 H                |   119.55
   72 C                |  75 C                |  74 H                |   120.13
   72 C                |  75 C                |  78 C                |   120.52
   74 H                |  75 C                |  78 C                |   119.35
   73 C                |  76 C                |  77 C                |   120.88
   73 C                |  76 C                |  79 H                |   121.25
   77 C                |  76 C                |  79 H                |   117.87
    1 C                |  77 C                |  76 C                |   114.95
    1 C                |  77 C                |  78 C                |   126.63
   76 C                |  77 C                |  78 C                |   118.42
   75 C                |  78 C                |  77 C                |   120.54
   75 C                |  78 C                |  80 H                |   118.66
   77 C                |  78 C                |  80 H                |   120.80
   71 N                |  83 C                |  84 C                |   119.77
   71 N                |  83 C                |  85 C                |   119.75
   84 C                |  83 C                |  85 C                |   120.39
   83 C                |  84 C                |  86 C                |   119.75
   83 C                |  84 C                |  87 H                |   119.44
   86 C                |  84 C                |  87 H                |   120.80
   83 C                |  85 C                |  88 C                |   119.67
   83 C                |  85 C                |  89 H                |   119.12
   88 C                |  85 C                |  89 H                |   121.19
   84 C                |  86 C                |  90 C                |   120.13
   84 C                |  86 C                |  91 H                |   119.77
   90 C                |  86 C                |  91 H                |   120.10
   85 C                |  88 C                |  90 C                |   120.16
   85 C                |  88 C                |  92 H                |   119.64
   90 C                |  88 C                |  92 H                |   120.20
   86 C                |  90 C                |  88 C                |   119.88
[...]
  ----- ------------  ---------------      ----- ------------  ---------------
   414    -12.372659  73 C  s               434     12.377694  76 C  s         
   452     12.311905  78 C  s               425    -12.078143  75 C  s         
   405     11.510781  72 C  s               443    -11.522928  77 C  s         
    95      6.820728   8 C  s               457      6.846812  78 C  py        
   184      6.357953  21 C  s               100     -6.269237   8 C  py        

 Vector  526  Occ=0.000000D+00  E= 1.776404D+00
              MO Center=  8.3D-02,  1.2D-02,  3.4D-01, r^2= 1.7D+01
   Bfn.  Coefficient  Atom+Function         Bfn.  Coefficient  Atom+Function  
  ----- ------------  ---------------      ----- ------------  ---------------
   100     11.465087   8 C  py              434     10.372512  76 C  s         
   184    -10.101635  21 C  s               166     -9.995946  19 C  s         
   414     -9.401293  73 C  s               135      9.303593  14 C  s         
   425     -8.770657  75 C  s               126      8.670480  13 C  s         
   238      8.493578  27 C  s                95     -8.371742   8 C  s         

 Vector  527  Occ=0.000000D+00  E= 1.795888D+00
              MO Center=  2.6D-01,  8.5D-01, -6.4D-01, r^2= 1.1D+01
   Bfn.  Coefficient  Atom+Function         Bfn.  Coefficient  Atom+Function  
  ----- ------------  ---------------      ----- ------------  ---------------
   220     10.268393  25 C  s               202      9.690917  23 C  s         
   157     -8.828767  18 C  s               148     -8.629098  17 C  s         
   291     -8.636372  36 C  s               113      8.141153  10 C  s         
   118      8.114735  10 C  py              154      7.241110  17 C  pz        
   396      6.676080  71 N  s               161     -5.062544  18 C  px        

 Vector  528  Occ=0.000000D+00  E= 1.888234D+00
              MO Center= -1.6D+00,  5.2D-01,  4.1D-01, r^2= 5.6D+00
   Bfn.  Coefficient  Atom+Function         Bfn.  Coefficient  Atom+Function  
  ----- ------------  ---------------      ----- ------------  ---------------
    73      4.076159   5 N  py               86     -4.028831   7 C  s         
   104      4.031257   9 C  s                81      3.368018   6 N  px        
   100      3.290526   8 C  py               77      2.957863   6 N  s         
    64     -2.912309   4 C  py              118      2.637305  10 C  py        
    68     -2.413877   5 N  s                82      2.082451   6 N  py        

 Vector  529  Occ=0.000000D+00  E= 1.897484D+00
              MO Center=  3.0D-01, -4.7D-01, -8.5D-01, r^2= 9.4D+00
   Bfn.  Coefficient  Atom+Function         Bfn.  Coefficient  Atom+Function  
  ----- ------------  ---------------      ----- ------------  ---------------
    22     27.135106   3 Ni s                23    -12.058727   3 Ni s         
    56     -6.595247   3 Ni dzz              54     -6.442588   3 Ni dyy       
   166      6.247661  19 C  s                51     -5.910000   3 Ni dxx       
   238     -4.863843  27 C  s               184      4.836921  21 C  s         
   135     -4.450427  14 C  s                95      3.916203   8 C  s         

 Vector  530  Occ=0.000000D+00  E= 1.983398D+00
              MO Center=  1.4D+00,  6.2D-01, -1.7D+00, r^2= 5.0D+00
   Bfn.  Coefficient  Atom+Function         Bfn.  Coefficient  Atom+Function  
  ----- ------------  ---------------      ----- ------------  ---------------
    12      7.729405   2 O  s                 9      5.372471   1 C  pz        
   448      4.085324  77 C  py                8     -3.990760   1 C  py        
    22     -3.784369   3 Ni s                23      3.593479   3 Ni s         
   434     -3.274550  76 C  s               148     -3.007185  17 C  s         
     7      2.981231   1 C  px              157     -2.893166  18 C  s         

 Vector  531  Occ=0.000000D+00  E= 2.893806D+00
              MO Center=  1.2D-01, -3.6D-01, -7.7D-01, r^2= 2.6D+00
   Bfn.  Coefficient  Atom+Function         Bfn.  Coefficient  Atom+Function  
  ----- ------------  ---------------      ----- ------------  ---------------
    22     10.301159   3 Ni s                23     -6.433800   3 Ni s         
    21      5.930308   3 Ni s                20     -3.208553   3 Ni s         
    45     -2.847399   3 Ni dxx              48     -2.839677   3 Ni dyy       
    50     -2.845514   3 Ni dzz             229     -1.610068  26 C  s         
   166      1.539438  19 C  s                54     -1.458158   3 Ni dyy       

 Vector  532  Occ=0.000000D+00  E= 3.096592D+00
              MO Center=  2.7D-01, -3.6D-01, -5.5D-01, r^2= 1.2D+00
   Bfn.  Coefficient  Atom+Function         Bfn.  Coefficient  Atom+Function  
  ----- ------------  ---------------      ----- ------------  ---------------
    22      3.265459   3 Ni s                23     -1.249770   3 Ni s         
    32     -1.171022   3 Ni pz               21      1.088667   3 Ni s         
   443     -1.062287  77 C  s                29      1.047881   3 Ni pz        
    12      1.034036   2 O  s               396     -1.016253  71 N  s         
     9      0.920167   1 C  pz              425     -0.818654  75 C  s         

 Vector  533  Occ=0.000000D+00  E= 3.272187D+00
              MO Center=  2.3D-01, -2.8D-01, -6.7D-01, r^2= 1.3D+00
   Bfn.  Coefficient  Atom+Function         Bfn.  Coefficient  Atom+Function  
  ----- ------------  ---------------      ----- ------------  ---------------
     3      3.258018   1 C  s               396     -2.610622  71 N  s         
     8     -2.032519   1 C  py              448      1.727960  77 C  py        
    31     -1.451762   3 Ni py               23     -1.336869   3 Ni s         
   452      1.335303  78 C  s               434     -1.300200  76 C  s         
   443     -1.292435  77 C  s                28      1.239425   3 Ni py        

 Vector  534  Occ=0.000000D+00  E= 3.476367D+00
              MO Center=  2.0D-01, -3.3D-01, -6.6D-01, r^2= 1.3D+00
   Bfn.  Coefficient  Atom+Function         Bfn.  Coefficient  Atom+Function  
  ----- ------------  ---------------      ----- ------------  ---------------
     3      3.080234   1 C  s               448      1.936877  77 C  py        
   434     -1.837519  76 C  s                 8     -1.479526   1 C  py        
    30     -1.383698   3 Ni px               33     -1.323558   3 Ni px        
   473      1.176480  83 C  px               63     -1.158265   4 C  px        
    64      1.128405   4 C  py               27      1.118235   3 Ni px        

 Vector  535  Occ=0.000000D+00  E= 4.762610D+00
              MO Center=  1.6D-01, -3.4D-01, -6.4D-01, r^2= 5.8D-01
   Bfn.  Coefficient  Atom+Function         Bfn.  Coefficient  Atom+Function  
  ----- ------------  ---------------      ----- ------------  ---------------
    49      1.624780   3 Ni dyz              43     -1.334539   3 Ni dyz       
    46      1.129553   3 Ni dxy              22     -1.033215   3 Ni s         
    40     -0.928926   3 Ni dxy              55     -0.752359   3 Ni dyz       
    23      0.567209   3 Ni s               396      0.501740  71 N  s         
   452     -0.487084  78 C  s                52     -0.477182   3 Ni dxy       

 Vector  536  Occ=0.000000D+00  E= 4.798484D+00
              MO Center=  1.6D-01, -3.5D-01, -6.5D-01, r^2= 6.1D-01
   Bfn.  Coefficient  Atom+Function         Bfn.  Coefficient  Atom+Function  
  ----- ------------  ---------------      ----- ------------  ---------------
    48      1.092224   3 Ni dyy              95      1.004985   8 C  s         
    47     -0.968681   3 Ni dxz              42     -0.820008   3 Ni dyy       
    41      0.787505   3 Ni dxz               3      0.756459   1 C  s         
    12     -0.654849   2 O  s                 8      0.588255   1 C  py        
    64      0.587241   4 C  py              135     -0.585649  14 C  s         

 Vector  537  Occ=0.000000D+00  E= 4.841555D+00
              MO Center=  1.5D-01, -3.5D-01, -6.5D-01, r^2= 6.4D-01
   Bfn.  Coefficient  Atom+Function         Bfn.  Coefficient  Atom+Function  
  ----- ------------  ---------------      ----- ------------  ---------------
    22      1.180987   3 Ni s                45     -1.002568   3 Ni dxx       
    50      0.943664   3 Ni dzz              56     -0.892062   3 Ni dzz       
    44     -0.857381   3 Ni dzz              39      0.697383   3 Ni dxx       
   478     -0.576746  84 C  s               487      0.571721  85 C  s         
    47     -0.533529   3 Ni dxz             101      0.522184   8 C  pz        

 Vector  538  Occ=0.000000D+00  E= 4.987679D+00
              MO Center=  1.4D-01, -3.5D-01, -6.4D-01, r^2= 6.9D-01
   Bfn.  Coefficient  Atom+Function         Bfn.  Coefficient  Atom+Function  
  ----- ------------  ---------------      ----- ------------  ---------------
    22     -1.604259   3 Ni s                 3      1.551746   1 C  s         
    46      1.389594   3 Ni dxy              52     -1.130484   3 Ni dxy       
    64     -1.114682   4 C  py               40     -1.055800   3 Ni dxy       
    47     -1.030709   3 Ni dxz             396     -0.943584  71 N  s         
    68     -0.882228   5 N  s                49     -0.860295   3 Ni dyz       

 Vector  539  Occ=0.000000D+00  E= 5.111807D+00
              MO Center=  1.7D-01, -3.6D-01, -6.7D-01, r^2= 7.0D-01
   Bfn.  Coefficient  Atom+Function         Bfn.  Coefficient  Atom+Function  
  ----- ------------  ---------------      ----- ------------  ---------------
    22      3.367948   3 Ni s                47      1.568191   3 Ni dxz       
    53     -1.572673   3 Ni dxz              59     -1.342303   4 C  s         
   396     -1.225465  71 N  s                33     -1.218636   3 Ni px        
    63     -1.218115   4 C  px               52     -1.203973   3 Ni dxy       
    46      1.157950   3 Ni dxy              41     -1.143888   3 Ni dxz       

 Vector  540  Occ=0.000000D+00  E= 1.026803D+01
              MO Center=  1.6D-01, -3.5D-01, -6.6D-01, r^2= 6.3D-01
   Bfn.  Coefficient  Atom+Function         Bfn.  Coefficient  Atom+Function  
  ----- ------------  ---------------      ----- ------------  ---------------
    21     27.684648   3 Ni s                20    -17.474342   3 Ni s         
    45     -7.570479   3 Ni dxx              48     -7.509680   3 Ni dyy       
    50     -7.505732   3 Ni dzz              22      4.366334   3 Ni s         
    23     -2.557597   3 Ni s                19      1.509082   3 Ni s         
    54     -0.700967   3 Ni dyy              56     -0.691497   3 Ni dzz       

 Vector  541  Occ=0.000000D+00  E= 4.997180D+01
              MO Center=  1.5D-01, -3.5D-01, -6.5D-01, r^2= 1.1D-01
   Bfn.  Coefficient  Atom+Function         Bfn.  Coefficient  Atom+Function  
  ----- ------------  ---------------      ----- ------------  ---------------
    20     21.414424   3 Ni s                21    -20.692336   3 Ni s         
    45      5.160854   3 Ni dxx              48      5.149623   3 Ni dyy       
    50      5.147285   3 Ni dzz              19     -4.351722   3 Ni s         
    39     -2.735510   3 Ni dxx              42     -2.732009   3 Ni dyy       
    44     -2.731167   3 Ni dzz              22     -1.991609   3 Ni s         

 Vector  542  Occ=0.000000D+00  E= 1.174661D+02
              MO Center=  1.5D-01, -3.5D-01, -6.5D-01, r^2= 2.9D-02
   Bfn.  Coefficient  Atom+Function         Bfn.  Coefficient  Atom+Function  
  ----- ------------  ---------------      ----- ------------  ---------------
    26      0.906230   3 Ni pz               24      0.494470   3 Ni px        
    29     -0.342143   3 Ni pz               25     -0.260762   3 Ni py        
    27     -0.186630   3 Ni px               32      0.176021   3 Ni pz        
    28      0.098571   3 Ni py               30      0.096134   3 Ni px        
    22     -0.081611   3 Ni s                33     -0.069243   3 Ni px        

 Vector  543  Occ=0.000000D+00  E= 1.175598D+02
              MO Center=  1.5D-01, -3.5D-01, -6.5D-01, r^2= 3.0D-02
   Bfn.  Coefficient  Atom+Function         Bfn.  Coefficient  Atom+Function  
  ----- ------------  ---------------      ----- ------------  ---------------
    25      1.031288   3 Ni py               28     -0.394859   3 Ni py        
     3     -0.268721   1 C  s                31      0.212186   3 Ni py        
    26      0.199976   3 Ni pz              396      0.189986  71 N  s         
    24      0.177295   3 Ni px                8      0.172705   1 C  py        
   448     -0.150935  77 C  py              434      0.118441  76 C  s         

 Vector  544  Occ=0.000000D+00  E= 1.176811D+02
              MO Center=  1.5D-01, -3.5D-01, -6.5D-01, r^2= 3.1D-02
   Bfn.  Coefficient  Atom+Function         Bfn.  Coefficient  Atom+Function  
  ----- ------------  ---------------      ----- ------------  ---------------
    24      0.927356   3 Ni px               26     -0.522700   3 Ni pz        
    27     -0.361520   3 Ni px                3     -0.234874   1 C  s         
    30      0.205214   3 Ni px               29      0.203727   3 Ni pz        
   448     -0.166847  77 C  py              434      0.155556  76 C  s         
     8      0.131818   1 C  py               32     -0.115459   3 Ni pz        

 Vector  545  Occ=0.000000D+00  E= 6.767297D+02
              MO Center=  1.5D-01, -3.5D-01, -6.5D-01, r^2= 2.3D-02
   Bfn.  Coefficient  Atom+Function         Bfn.  Coefficient  Atom+Function  
  ----- ------------  ---------------      ----- ------------  ---------------
    20     28.884790   3 Ni s                21    -15.358327   3 Ni s         
    39     -7.285219   3 Ni dxx              42     -7.286824   3 Ni dyy       
    44     -7.286638   3 Ni dzz              19     -4.276779   3 Ni s         
    45      3.410847   3 Ni dxx              48      3.416420   3 Ni dyy       
    50      3.415716   3 Ni dzz              51      0.134946   3 Ni dxx       


 center of mass
 --------------
 x =   0.06569438 y =  -0.01290847 z =  -0.03183681

 moments of inertia (a.u.)
 ------------------
       24181.314974148911           0.000000000005           0.000000000002
           0.000000000005       21590.364258173875           0.000000000001
           0.000000000002           0.000000000001       29582.682983908300

     Multipole analysis of the density
     ---------------------------------

     L   x y z        total         alpha         beta         nuclear
     -   - - -        -----         -----         ----         -------
     0   0 0 0     -0.000000   -172.000000   -172.000000    344.000000

     1   1 0 0     -1.130278      0.889609      0.889609     -2.909496
     1   0 1 0     -0.985478     -3.769684     -3.769684      6.553889
     1   0 0 1      1.193851     -5.581827     -5.581827     12.357505

     2   2 0 0   -201.637406  -3844.464732  -3844.464732   7487.292057
     2   1 1 0     -3.795201     -5.840456     -5.840456      7.885711
     2   1 0 1      1.671173    -49.950856    -49.950856    101.572885
     2   0 2 0   -203.073691  -4543.035387  -4543.035387   8882.997083
     2   0 1 1      3.706671     -0.495513     -0.495513      4.697698
     2   0 0 2   -208.418448  -2456.608188  -2456.608188   4704.797928


 Task  times  cpu:     3213.4s     wall:     3213.4s


                                NWChem Input Module
                                -------------------


 Summary of allocated global arrays
-----------------------------------
  No active global arrays


MA_summarize_allocated_blocks: starting scan ...
heap block 'gridpts', handle 82, address 0x5a748043f320:
	type of elements:		double precision
	number of elements:		203683868
	address of client space:	0x5a748043f380
	index for client space:		95548235
	total number of bytes:		1629471048
MA_summarize_allocated_blocks: scan completed: 1 heap block, 0 stack blocks
MA usage statistics:

	allocation statistics:
					      heap	     stack
					      ----	     -----
	current number of blocks	         1	         0
	maximum number of blocks	        34	        58
	current total bytes		1629471048	         0
	maximum total bytes		1648841976	  46826712
	maximum total K-bytes		   1648842	     46827
	maximum total M-bytes		      1649	        47


                                     CITATION
                                     --------
                Please cite the following reference when publishing
                           results obtained with NWChem:

          E. Apra, E. J. Bylaska, W. A. de Jong, N. Govind, K. Kowalski,
       T. P. Straatsma, M. Valiev, H. J. J. van Dam, Y. Alexeev, J. Anchell,
       V. Anisimov, F. W. Aquino, R. Atta-Fynn, J. Autschbach, N. P. Bauman,
     J. C. Becca, D. E. Bernholdt, K. Bhaskaran-Nair, S. Bogatko, P. Borowski,
         J. Boschen, J. Brabec, A. Bruner, E. Cauet, Y. Chen, G. N. Chuev,
      C. J. Cramer, J. Daily, M. J. O. Deegan, T. H. Dunning Jr., M. Dupuis,
   K. G. Dyall, G. I. Fann, S. A. Fischer, A. Fonari, H. Fruchtl, L. Gagliardi,
      J. Garza, N. Gawande, S. Ghosh, K. Glaesemann, A. W. Gotz, J. Hammond,
       V. Helms, E. D. Hermes, K. Hirao, S. Hirata, M. Jacquelin, L. Jensen,
   B. G. Johnson, H. Jonsson, R. A. Kendall, M. Klemm, R. Kobayashi, V. Konkov,
      S. Krishnamoorthy, M. Krishnan, Z. Lin, R. D. Lins, R. J. Littlefield,
      A. J. Logsdail, K. Lopata, W. Ma, A. V. Marenich, J. Martin del Campo,
   D. Mejia-Rodriguez, J. E. Moore, J. M. Mullin, T. Nakajima, D. R. Nascimento,
    J. A. Nichols, P. J. Nichols, J. Nieplocha, A. Otero-de-la-Roza, B. Palmer,
    A. Panyala, T. Pirojsirikul, B. Peng, R. Peverati, J. Pittner, L. Pollack,
   R. M. Richard, P. Sadayappan, G. C. Schatz, W. A. Shelton, D. W. Silverstein,
   D. M. A. Smith, T. A. Soares, D. Song, M. Swart, H. L. Taylor, G. S. Thomas,
            V. Tipparaju, D. G. Truhlar, K. Tsemekhman, T. Van Voorhis,
      A. Vazquez-Mayagoitia, P. Verma, O. Villa, A. Vishnu, K. D. Vogiatzis,
        D. Wang, J. H. Weare, M. J. Williamson, T. L. Windus, K. Wolinski,
        A. T. Wong, Q. Wu, C. Yang, Q. Yu, M. Zacharias, Z. Zhang, Y. Zhao,
                                and R. J. Harrison
                        "NWChem: Past, present, and future
                         J. Chem. Phys. 152, 184102 (2020)
                               doi:10.1063/5.0004997

                                      AUTHORS
                                      -------
  E. Apra, E. J. Bylaska, N. Govind, K. Kowalski, M. Valiev, D. Mejia-Rodriguez,
       A. Kunitsa, N. P. Bauman, A. Panyala, W. A. de Jong, T. P. Straatsma,
   H. J. J. van Dam, D. Wang, T. L. Windus, J. Hammond, J. Autschbach, A. Woods,
    K. Bhaskaran-Nair, J. Brabec, K. Lopata, S. A. Fischer, S. Krishnamoorthy,
     M. Jacquelin, W. Ma, M. Klemm, O. Villa, Y. Chen, V. Anisimov, F. Aquino,
     S. Hirata, M. T. Hackler, E. Hermes, L. Jensen, J. E. Moore, J. C. Becca,
      V. Konjkov, T. Risthaus, M. Malagoli, A. Marenich, A. Otero-de-la-Roza,
        J. Mullin, P. Nichols, R. Peverati, J. Pittner, Y. Zhao, P.-D. Fan,
        A. Fonari, M. J. Williamson, R. J. Harrison, J. R. Rehr, M. Dupuis,
     D. Silverstein, D. M. A. Smith, J. Nieplocha, V. Tipparaju, M. Krishnan,
     B. E. Van Kuiken, A. Vazquez-Mayagoitia, M. Swart, Q. Wu, T. Van Voorhis,
     A. A. Auer, M. Nooijen, L. D. Crosby, E. Brown, G. Cisneros, G. I. Fann,
   H. Fruchtl, J. Garza, K. Hirao, R. A. Kendall, J. A. Nichols, K. Tsemekhman,
    K. Wolinski, J. Anchell, D. E. Bernholdt, P. Borowski, T. Clark, D. Clerc,
   H. Dachsel, M. J. O. Deegan, K. Dyall, D. Elwood, E. Glendening, M. Gutowski,
   A. C. Hess, J. Jaffe, B. G. Johnson, J. Ju, R. Kobayashi, R. Kutteh, Z. Lin,
   R. Littlefield, X. Long, B. Meng, T. Nakajima, S. Niu, L. Pollack, M. Rosing,
   K. Glaesemann, G. Sandrone, M. Stave, H. Taylor, G. Thomas, J. H. van Lenthe,
                               A. T. Wong, Z. Zhang.

 Total times  cpu:     3214.0s     wall:     3214.0s
