 argument  1 = nwchem.in
  NWChem w/ OpenMP: maximum threads =    1
                                         
                                         


             Northwest Computational Chemistry Package (NWChem) 7.2.3
             --------------------------------------------------------


                    Environmental Molecular Sciences Laboratory
                       Pacific Northwest National Laboratory
                                Richland, WA 99352

                              Copyright (c) 1994-2022
                       Pacific Northwest National Laboratory
                            Battelle Memorial Institute

             NWChem is an open-source computational chemistry package
                        distributed under the terms of the
                      Educational Community License (ECL) 2.0
             A copy of the license is included with this distribution
                              in the LICENSE.TXT file

                                  ACKNOWLEDGMENT
                                  --------------

            This software and its documentation were developed at the
            EMSL at Pacific Northwest National Laboratory, a multiprogram
            national laboratory, operated for the U.S. Department of Energy
            by Battelle under Contract Number DE-AC05-76RL01830. Support
            for this work was provided by the Department of Energy Office
            of Biological and Environmental Research, Office of Basic
            Energy Sciences, and the Office of Advanced Scientific Computing.


           Job information
           ---------------

    hostname        = bc195b9b2bc3
    program         = nwchem
    date            = Sun Jun 29 04:50:46 2025

    compiled        = Fri_May_02_22:05:35_2025
    source          = /opt/nwchem
    nwchem branch   = 7.2.3
    nwchem revision = N/A
    ga revision     = 5.9.1
    use scalapack   = T
    input           = nwchem.in
    prefix          = ni_singlepoint.
    data base       = ./ni_singlepoint.db
    status          = startup
    nproc           =        5
    time left       =     -1s



           Memory information
           ------------------

    heap     =    509724440 doubles =     3888.9 Mbytes
    stack    =    509724441 doubles =     3888.9 Mbytes
    global   =    291271111 doubles =     2222.2 Mbytes (distinct from heap & stack)
    total    =   1310719992 doubles =    10000.0 Mbytes
    verify   = yes
    hardfail = no 


           Directory information
           ---------------------

  0 permanent = .
  0 scratch   = .




                                NWChem Input Module
                                -------------------


                          Ni complex single-point energy
                          ------------------------------

 Scaling coordinates for geometry "geometry" by  1.889725989
 (inverse scale =  0.529177249)

 C1  symmetry detected

          ------
          auto-z
          ------
  no constraints, skipping    0.0000000000000000     
  no constraints, skipping    0.0000000000000000     


                             Geometry "geometry" -> ""
                             -------------------------

 Output coordinates in angstroms (scale by  1.889725989 to convert to a.u.)

  No.       Tag          Charge          X              Y              Z
 ---- ---------------- ---------- -------------- -------------- --------------
    1 C                    6.0000     1.37156256     0.84991247    -1.17199476
    2 O                    8.0000     1.23524916     1.56015566    -2.14032463
    3 Ni                  28.0000     0.11754603    -0.44105569    -0.80916497
    4 C                    6.0000    -1.14399257     0.43193310     0.32127997
    5 N                    7.0000    -2.03420620    -0.35485768     0.94949749
    6 N                    7.0000    -1.50640075     1.69551046     0.55070647
    7 C                    6.0000    -3.06016120     0.37408415     1.69553147
    8 C                    6.0000    -1.94290589    -1.77999708     0.96708463
    9 C                    6.0000    -2.76910265     1.82066106     1.28840966
   10 C                    6.0000    -0.83053012     2.85962070     0.06988673
   11 H                    1.0000    -4.05674517     0.04178847     1.40082866
   12 H                    1.0000    -2.94702125     0.20581820     2.76952933
   13 C                    6.0000    -2.54016395    -2.50632504    -0.06869526
   14 C                    6.0000    -1.26969109    -2.40154934     2.02548448
   15 H                    1.0000    -3.54047590     2.23397744     0.63425214
   16 H                    1.0000    -2.65020927     2.49011996     2.14047578
   17 C                    6.0000     0.02880498     3.52949533     0.94550739
   18 C                    6.0000    -1.07075158     3.29959616    -1.23439522
   19 C                    6.0000    -2.40875257    -3.89117606    -0.04855433
   20 C                    6.0000    -3.34292411    -1.83134586    -1.16417057
   21 C                    6.0000    -1.18255850    -3.78811237     2.01499761
   22 C                    6.0000    -0.65215249    -1.60570097     3.15874032
   23 C                    6.0000     0.69519138     4.65115985     0.46589807
   24 C                    6.0000     0.21704070     3.09031805     2.38652051
   25 C                    6.0000    -0.38376311     4.42556288    -1.66963855
   26 C                    6.0000    -2.07061028     2.60848561    -2.14234141
   27 C                    6.0000    -1.73472450    -4.52590419     0.97998298
   28 H                    1.0000    -2.83941753    -4.47949762    -0.84910069
   29 C                    6.0000    -4.82453318    -2.20004035    -1.03966031
   30 C                    6.0000    -2.80529282    -2.16382969    -2.55599888
   31 H                    1.0000    -3.25511024    -0.75126175    -1.02749882
   32 H                    1.0000    -0.65664127    -4.29714415     2.81349154
   33 C                    6.0000     0.83618371    -1.91351853     3.32258435
   34 C                    6.0000    -1.40796701    -1.85521245     4.46658165
   35 H                    1.0000    -0.73560629    -0.54502458     2.91197662
   36 C                    6.0000     0.49740303     5.08961045    -0.83248765
   37 H                    1.0000     1.37869229     5.18507554     1.11498638
   38 C                    6.0000    -0.34820348     4.13827637     3.35036763
   39 C                    6.0000     1.67988281     2.79465525     2.71368444
   40 H                    1.0000    -0.34028079     2.16162242     2.53145629
   41 H                    1.0000    -0.52774242     4.78006674    -2.68218894
   42 C                    6.0000    -1.52589099     2.35371061    -3.54776575
   43 C                    6.0000    -3.36613686     3.42418307    -2.21517863
   44 H                    1.0000    -2.30309335     1.63499067    -1.70444280
   45 H                    1.0000    -1.63285759    -5.60348507     0.97264310
   46 H                    1.0000    -5.21915818    -1.94772961    -0.05316509
   47 H                    1.0000    -4.97218661    -3.27138793    -1.19021927
   48 H                    1.0000    -5.41423358    -1.67149505    -1.79074260
   49 H                    1.0000    -1.74614679    -1.91400217    -2.63776980
   50 H                    1.0000    -3.35854029    -1.60773818    -3.31535627
   51 H                    1.0000    -2.91600896    -3.22736879    -2.77740090
   52 H                    1.0000     1.37376414    -1.75877232     2.38770102
   53 H                    1.0000     0.99604808    -2.94741802     3.63464383
   54 H                    1.0000     1.27467781    -1.26398492     4.08254517
   55 H                    1.0000    -2.47124468    -1.62810851     4.36700044
   56 H                    1.0000    -0.99811933    -1.24131173     5.27056664
   57 H                    1.0000    -1.32259695    -2.90182200     4.76622034
   58 H                    1.0000     1.03243341     5.95852112    -1.19445922
   59 H                    1.0000    -1.39752949     4.35833302     3.14372278
   60 H                    1.0000     0.20597562     5.07549573     3.26806501
   61 H                    1.0000    -0.26514071     3.79159454     4.38240902
   62 H                    1.0000     2.08689796     2.03458278     2.04963285
   63 H                    1.0000     1.77126212     2.43882675     3.74229619
   64 H                    1.0000     2.29541211     3.69107726     2.61594548
   65 H                    1.0000    -0.57019243     1.83617885    -3.50213894
   66 H                    1.0000    -1.38540126     3.28898423    -4.09406352
   67 H                    1.0000    -2.23720389     1.74955893    -4.11499535
   68 H                    1.0000    -3.79472006     3.60493821    -1.22743991
   69 H                    1.0000    -4.10994036     2.90727828    -2.82488128
   70 H                    1.0000    -3.17399714     4.39765432    -2.67192505
   71 N                    7.0000     0.89529908    -1.61279902    -1.98508609
   72 C                    6.0000     4.84824224     1.30195784     1.27668344
   73 C                    6.0000     4.53067466     2.26066653     0.32063958
   74 H                    1.0000     4.32255590    -0.59077624     2.14297703
   75 C                    6.0000     4.06516059     0.16305521     1.40958851
   76 C                    6.0000     3.41654167     2.09117673    -0.48383193
   77 C                    6.0000     2.61133546     0.96587392    -0.32980580
   78 C                    6.0000     2.94717941    -0.00414272     0.60424231
   79 H                    1.0000     3.14301089     2.81945801    -1.23678741
   80 H                    1.0000     2.33406011    -0.89347070     0.68533270
   81 H                    1.0000     5.71093502     1.44325262     1.91574053
   82 H                    1.0000     5.15306631     3.13954365     0.20652140
   83 C                    6.0000     1.81246032    -2.56425331    -1.56023944
   84 C                    6.0000     3.00288541    -2.86779096    -2.23899767
   85 C                    6.0000     1.53555421    -3.29594945    -0.39212915
   86 C                    6.0000     3.85172597    -3.86486018    -1.77697118
   87 H                    1.0000     3.27940644    -2.31500789    -3.12561879
   88 C                    6.0000     2.38154822    -4.29230150     0.05599189
   89 H                    1.0000     0.60710385    -3.09166616     0.12994551
   90 C                    6.0000     3.54970940    -4.59482314    -0.63785866
   91 H                    1.0000     4.76545073    -4.07149198    -2.32193643
   92 H                    1.0000     2.11478373    -4.85843760     0.94161303
   93 H                    1.0000     4.20267363    -5.39016272    -0.30308141
   94 C                    6.0000     0.99050912    -1.22375285    -3.38136098
   95 H                    1.0000     1.94799900    -0.76502143    -3.65637616
   96 H                    1.0000     0.83417612    -2.09415980    -4.03025955
   97 H                    1.0000     0.21832838    -0.48810879    -3.60294862

      Atomic Mass 
      ----------- 

      C                 12.000000
      O                 15.994910
      Ni                57.935300
      N                 14.003070
      H                  1.007825


 Effective nuclear repulsion energy (a.u.)    7255.3200438266

            Nuclear Dipole moment (a.u.) 
            ----------------------------
        X                 Y               Z
 ---------------- ---------------- ----------------
    -0.0000000000    -0.0000000000     0.0000000000



                                Z-matrix (autoz)
                                -------- 

 Units are Angstrom for bonds and degrees for angles

      Type          Name      I     J     K     L     M      Value
      ----------- --------  ----- ----- ----- ----- ----- ----------
    1 Stretch                  1     2                       1.20859
    2 Stretch                  1     3                       1.83597
    3 Stretch                  1    77                       1.50325
    4 Stretch                  3     4                       1.90565
    5 Stretch                  3    71                       1.83321
    6 Stretch                  4     5                       1.34394
    7 Stretch                  4     6                       1.33439
    8 Stretch                  5     7                       1.46305
    9 Stretch                  5     8                       1.42817
   10 Stretch                  6     9                       1.46775
   11 Stretch                  6    10                       1.42938
   12 Stretch                  7     9                       1.53070
   13 Stretch                  7    11                       1.09108
   14 Stretch                  7    12                       1.09297
   15 Stretch                  8    13                       1.39897
   16 Stretch                  8    14                       1.39991
   17 Stretch                  9    15                       1.09260
   18 Stretch                  9    16                       1.09010
   19 Stretch                 10    17                       1.39782
   20 Stretch                 10    18                       1.39730
   21 Stretch                 13    19                       1.39122
   22 Stretch                 13    20                       1.51660
   23 Stretch                 14    21                       1.38934
   24 Stretch                 14    22                       1.51624
   25 Stretch                 17    23                       1.39005
   26 Stretch                 17    24                       1.51817
   27 Stretch                 18    25                       1.38895
   28 Stretch                 18    26                       1.51714
   29 Stretch                 19    27                       1.38387
   30 Stretch                 19    28                       1.08281
   31 Stretch                 20    29                       1.53186
   32 Stretch                 20    30                       1.52865
   33 Stretch                 20    31                       1.09223
   34 Stretch                 21    27                       1.38581
   35 Stretch                 21    32                       1.08319
   36 Stretch                 22    33                       1.52864
   37 Stretch                 22    34                       1.53100
   38 Stretch                 22    35                       1.09220
   39 Stretch                 23    36                       1.38462
   40 Stretch                 23    37                       1.08331
   41 Stretch                 24    38                       1.53190
   42 Stretch                 24    39                       1.52786
   43 Stretch                 24    40                       1.09274
   44 Stretch                 25    36                       1.38500
   45 Stretch                 25    41                       1.08243
   46 Stretch                 26    42                       1.52867
   47 Stretch                 26    43                       1.53266
   48 Stretch                 26    44                       1.09247
   49 Stretch                 27    45                       1.08241
   50 Stretch                 29    46                       1.09205
   51 Stretch                 29    47                       1.09190
   52 Stretch                 29    48                       1.09144
   53 Stretch                 30    49                       1.09128
   54 Stretch                 30    50                       1.09176
   55 Stretch                 30    51                       1.09197
   56 Stretch                 33    52                       1.08947
   57 Stretch                 33    53                       1.09174
   58 Stretch                 33    54                       1.09166
   59 Stretch                 34    55                       1.09181
   60 Stretch                 34    56                       1.09144
   61 Stretch                 34    57                       1.09200
   62 Stretch                 36    58                       1.08272
   63 Stretch                 38    59                       1.09188
   64 Stretch                 38    60                       1.09191
   65 Stretch                 38    61                       1.09188
   66 Stretch                 39    62                       1.08827
   67 Stretch                 39    63                       1.09225
   68 Stretch                 39    64                       1.09179
   69 Stretch                 42    65                       1.08779
   70 Stretch                 42    66                       1.09221
   71 Stretch                 42    67                       1.09211
   72 Stretch                 43    68                       1.09178
   73 Stretch                 43    69                       1.09187
   74 Stretch                 43    70                       1.09233
   75 Stretch                 71    83                       1.38814
   76 Stretch                 71    94                       1.45259
   77 Stretch                 72    73                       1.39068
   78 Stretch                 72    75                       1.38852
   79 Stretch                 72    81                       1.08287
   80 Stretch                 73    76                       1.38463
   81 Stretch                 73    82                       1.08297
   82 Stretch                 74    75                       1.08276
   83 Stretch                 75    78                       1.38796
   84 Stretch                 76    77                       1.39226
   85 Stretch                 76    79                       1.08266
   86 Stretch                 77    78                       1.38787
   87 Stretch                 78    80                       1.08323
   88 Stretch                 83    84                       1.40355
   89 Stretch                 83    85                       1.40589
   90 Stretch                 84    86                       1.38858
   91 Stretch                 84    87                       1.08080
   92 Stretch                 85    88                       1.38175
   93 Stretch                 85    89                       1.08458
   94 Stretch                 86    90                       1.38623
   95 Stretch                 86    91                       1.08378
   96 Stretch                 88    90                       1.39196
   97 Stretch                 88    92                       1.08443
   98 Stretch                 90    93                       1.08213
   99 Stretch                 94    95                       1.09675
  100 Stretch                 94    96                       1.09687
  101 Stretch                 94    97                       1.08928
  102 Bend                     1     3     4               104.31636
  103 Bend                     1     3    71                91.88497
  104 Bend                     1    77    76               118.51220
  105 Bend                     1    77    78               121.51406
  106 Bend                     2     1     3               119.63783
  107 Bend                     2     1    77               119.77252
  108 Bend                     3     1    77               120.45317
  109 Bend                     3     4     5               116.58995
  110 Bend                     3     4     6               135.69071
  111 Bend                     3    71    83               121.47262
  112 Bend                     3    71    94               118.24252
  113 Bend                     4     3    71               162.58890
  114 Bend                     4     5     7               114.27847
  115 Bend                     4     5     8               123.20282
  116 Bend                     4     6     9               113.62858
  117 Bend                     4     6    10               125.79867
  118 Bend                     5     4     6               107.10350
  119 Bend                     5     7     9               101.64751
  120 Bend                     5     7    11               110.55107
  121 Bend                     5     7    12               110.59570
  122 Bend                     5     8    13               118.79499
  123 Bend                     5     8    14               118.88838
  124 Bend                     6     9     7               102.51420
  125 Bend                     6     9    15               109.79800
  126 Bend                     6     9    16               110.57253
  127 Bend                     6    10    17               118.05122
  128 Bend                     6    10    18               119.28405
  129 Bend                     7     5     8               122.39332
  130 Bend                     7     9    15               112.48834
  131 Bend                     7     9    16               113.15491
  132 Bend                     8    13    19               117.75989
  133 Bend                     8    13    20               121.98572
  134 Bend                     8    14    21               117.87601
  135 Bend                     8    14    22               121.86326
  136 Bend                     9     6    10               120.42499
  137 Bend                     9     7    11               112.93331
  138 Bend                     9     7    12               112.77804
  139 Bend                    10    17    23               117.72879
  140 Bend                    10    17    24               122.15266
  141 Bend                    10    18    25               117.56314
  142 Bend                    10    18    26               121.90317
  143 Bend                    11     7    12               108.24478
  144 Bend                    13     8    14               122.31415
  145 Bend                    13    19    27               120.88596
  146 Bend                    13    19    28               119.50976
  147 Bend                    13    20    29               110.25022
  148 Bend                    13    20    30               112.00618
  149 Bend                    13    20    31               107.88869
  150 Bend                    14    21    27               120.79546
  151 Bend                    14    21    32               119.59632
  152 Bend                    14    22    33               111.77478
  153 Bend                    14    22    34               110.60122
  154 Bend                    14    22    35               108.04410
  155 Bend                    15     9    16               108.21992
  156 Bend                    17    10    18               122.65046
  157 Bend                    17    23    36               120.70265
  158 Bend                    17    23    37               119.56676
  159 Bend                    17    24    38               110.70549
  160 Bend                    17    24    39               112.20629
  161 Bend                    17    24    40               107.96949
  162 Bend                    18    25    36               120.92709
  163 Bend                    18    25    41               119.52713
  164 Bend                    18    26    42               113.03477
  165 Bend                    18    26    43               110.06427
  166 Bend                    18    26    44               107.83574
  167 Bend                    19    13    20               120.23037
  168 Bend                    19    27    21               120.32965
  169 Bend                    19    27    45               119.82913
  170 Bend                    20    29    46               111.55069
  171 Bend                    20    29    47               110.83847
  172 Bend                    20    29    48               110.49247
  173 Bend                    20    30    49               111.08658
  174 Bend                    20    30    50               110.13723
  175 Bend                    20    30    51               111.14850
  176 Bend                    21    14    22               120.26047
  177 Bend                    21    27    45               119.84005
  178 Bend                    22    33    52               111.09078
  179 Bend                    22    33    53               111.34032
  180 Bend                    22    33    54               110.23615
  181 Bend                    22    34    55               111.65147
  182 Bend                    22    34    56               110.62254
  183 Bend                    22    34    57               110.60989
  184 Bend                    23    17    24               120.09833
  185 Bend                    23    36    25               120.38810
  186 Bend                    23    36    58               119.80393
  187 Bend                    24    38    59               111.92512
  188 Bend                    24    38    60               110.63910
  189 Bend                    24    38    61               110.45238
  190 Bend                    24    39    62               111.25866
  191 Bend                    24    39    63               110.16958
  192 Bend                    24    39    64               111.20665
  193 Bend                    25    18    26               120.51190
  194 Bend                    25    36    58               119.80770
  195 Bend                    26    42    65               110.71963
  196 Bend                    26    42    66               111.28264
  197 Bend                    26    42    67               109.73203
  198 Bend                    26    43    68               112.14400
  199 Bend                    26    43    69               110.51203
  200 Bend                    26    43    70               110.21151
  201 Bend                    27    19    28               119.60426
  202 Bend                    27    21    32               119.59267
  203 Bend                    29    20    30               111.21207
  204 Bend                    29    20    31               107.79409
  205 Bend                    30    20    31               107.50183
  206 Bend                    33    22    34               110.87194
  207 Bend                    33    22    35               107.10757
  208 Bend                    34    22    35               108.27330
  209 Bend                    36    23    37               119.73029
  210 Bend                    36    25    41               119.53915
  211 Bend                    38    24    39               110.54438
  212 Bend                    38    24    40               108.04424
  213 Bend                    39    24    40               107.18463
  214 Bend                    42    26    43               110.25567
  215 Bend                    42    26    44               107.20741
  216 Bend                    43    26    44               108.26534
  217 Bend                    46    29    47               107.60111
  218 Bend                    46    29    48               108.33161
  219 Bend                    47    29    48               107.89051
  220 Bend                    49    30    50               108.85064
  221 Bend                    49    30    51               107.82942
  222 Bend                    50    30    51               107.67931
  223 Bend                    52    33    53               107.91100
  224 Bend                    52    33    54               108.34042
  225 Bend                    53    33    54               107.79862
  226 Bend                    55    34    56               108.41431
  227 Bend                    55    34    57               107.48896
  228 Bend                    56    34    57               107.91501
  229 Bend                    59    38    60               107.48752
  230 Bend                    59    38    61               108.42013
  231 Bend                    60    38    61               107.76795
  232 Bend                    62    39    63               108.41030
  233 Bend                    62    39    64               107.93662
  234 Bend                    63    39    64               107.73534
  235 Bend                    65    42    66               108.38348
  236 Bend                    65    42    67               109.31874
  237 Bend                    66    42    67               107.31961
  238 Bend                    68    43    69               108.43041
  239 Bend                    68    43    70               107.44548
  240 Bend                    69    43    70               107.95300
  241 Bend                    71    83    84               124.09766
  242 Bend                    71    83    85               118.74283
  243 Bend                    71    94    95               114.22251
  244 Bend                    71    94    96               110.29070
  245 Bend                    71    94    97               109.26595
  246 Bend                    72    73    76               119.91909
  247 Bend                    72    73    82               120.04424
  248 Bend                    72    75    74               120.12036
  249 Bend                    72    75    78               119.83735
  250 Bend                    73    72    75               120.16343
  251 Bend                    73    72    81               119.84678
  252 Bend                    73    76    77               120.00150
  253 Bend                    73    76    79               121.66943
  254 Bend                    74    75    78               120.04154
  255 Bend                    75    72    81               119.98933
  256 Bend                    75    78    77               120.08134
  257 Bend                    75    78    80               120.75554
  258 Bend                    76    73    82               120.03660
  259 Bend                    76    77    78               119.96139
  260 Bend                    77    76    79               118.32800
  261 Bend                    77    78    80               119.15868
  262 Bend                    83    71    94               115.75077
  263 Bend                    83    84    86               120.85422
  264 Bend                    83    84    87               120.20555
  265 Bend                    83    85    88               121.61137
  266 Bend                    83    85    89               118.06849
  267 Bend                    84    83    85               117.14897
  268 Bend                    84    86    90               121.22142
  269 Bend                    84    86    91               119.01086
  270 Bend                    85    88    90               120.58916
  271 Bend                    85    88    92               119.38578
  272 Bend                    86    84    87               118.93424
  273 Bend                    86    90    88               118.55522
  274 Bend                    86    90    93               120.64918
  275 Bend                    88    85    89               120.25369
  276 Bend                    88    90    93               120.79160
  277 Bend                    90    86    91               119.76772
  278 Bend                    90    88    92               120.00440
  279 Bend                    95    94    96               107.93842
  280 Bend                    95    94    97               106.58246
  281 Bend                    96    94    97               108.33267
  282 Torsion                  1     3     4     5        -167.45475
  283 Torsion                  1     3     4     6          22.94208
  284 Torsion                  1     3    71    83          94.97871
  285 Torsion                  1     3    71    94         -60.12144
  286 Torsion                  1    77    76    73         176.91351
  287 Torsion                  1    77    76    79          -2.71755
  288 Torsion                  1    77    78    75        -177.00028
  289 Torsion                  1    77    78    80           3.76027
  290 Torsion                  2     1     3     4         -90.62068
  291 Torsion                  2     1     3    71          82.94250
  292 Torsion                  2     1    77    76          15.37822
  293 Torsion                  2     1    77    78        -165.90095
  294 Torsion                  3     1    77    76        -168.88354
  295 Torsion                  3     1    77    78           9.83728
  296 Torsion                  3     4     5     7        -174.16032
  297 Torsion                  3     4     5     8           9.82742
  298 Torsion                  3     4     6     9         165.62124
  299 Torsion                  3     4     6    10          -9.94655
  300 Torsion                  3    71    83    84        -136.88778
  301 Torsion                  3    71    83    85          44.32939
  302 Torsion                  3    71    94    95          94.98020
  303 Torsion                  3    71    94    96        -143.25664
  304 Torsion                  3    71    94    97         -24.27904
  305 Torsion                  4     3     1    77          93.63536
  306 Torsion                  4     3    71    83        -106.30730
  307 Torsion                  4     3    71    94          98.59254
  308 Torsion                  4     5     7     9           6.77629
  309 Torsion                  4     5     7    11         126.92012
  310 Torsion                  4     5     7    12        -113.20757
  311 Torsion                  4     5     8    13         -88.19359
  312 Torsion                  4     5     8    14          92.36621
  313 Torsion                  4     6     9     7           8.58970
  314 Torsion                  4     6     9    15        -111.16694
  315 Torsion                  4     6     9    16         129.48893
  316 Torsion                  4     6    10    17         -99.60702
  317 Torsion                  4     6    10    18          81.73061
  318 Torsion                  5     4     3    71          34.53594
  319 Torsion                  5     4     6     9          -4.65810
  320 Torsion                  5     4     6    10         179.77411
  321 Torsion                  5     7     9     6          -8.43430
  322 Torsion                  5     7     9    15         109.43043
  323 Torsion                  5     7     9    16        -127.53875
  324 Torsion                  5     8    13    19         178.38461
  325 Torsion                  5     8    13    20          -3.39566
  326 Torsion                  5     8    14    21        -179.40376
  327 Torsion                  5     8    14    22           0.78178
  328 Torsion                  6     4     3    71        -135.06723
  329 Torsion                  6     4     5     7          -1.73933
  330 Torsion                  6     4     5     8        -177.75159
  331 Torsion                  6     9     7    11        -126.88486
  332 Torsion                  6     9     7    12         109.99706
  333 Torsion                  6    10    17    23         179.22693
  334 Torsion                  6    10    17    24          -2.40854
  335 Torsion                  6    10    18    25        -179.29852
  336 Torsion                  6    10    18    26           2.39200
  337 Torsion                  7     5     8    13          96.11193
  338 Torsion                  7     5     8    14         -83.32826
  339 Torsion                  7     9     6    10        -175.57878
  340 Torsion                  8     5     7     9        -177.17525
  341 Torsion                  8     5     7    11         -57.03143
  342 Torsion                  8     5     7    12          62.84089
  343 Torsion                  8    13    19    27           1.42768
  344 Torsion                  8    13    19    28        -178.53456
  345 Torsion                  8    13    20    29        -111.71031
  346 Torsion                  8    13    20    30         123.88285
  347 Torsion                  8    13    20    31           5.76437
  348 Torsion                  8    14    21    27           0.64147
  349 Torsion                  8    14    21    32         179.20100
  350 Torsion                  8    14    22    33        -124.15703
  351 Torsion                  8    14    22    34         111.78568
  352 Torsion                  8    14    22    35          -6.55768
  353 Torsion                  9     6    10    17          85.10269
  354 Torsion                  9     6    10    18         -93.55968
  355 Torsion                 10     6     9    15          64.66458
  356 Torsion                 10     6     9    16         -54.67955
  357 Torsion                 10    17    23    36           0.62802
  358 Torsion                 10    17    23    37        -179.17238
  359 Torsion                 10    17    24    38        -112.80611
  360 Torsion                 10    17    24    39         123.17138
  361 Torsion                 10    17    24    40           5.27431
  362 Torsion                 10    18    25    36          -0.52085
  363 Torsion                 10    18    25    41         178.53800
  364 Torsion                 10    18    26    42        -133.48628
  365 Torsion                 10    18    26    43         102.74714
  366 Torsion                 10    18    26    44         -15.15953
  367 Torsion                 11     7     9    15          -9.02013
  368 Torsion                 11     7     9    16         114.01069
  369 Torsion                 12     7     9    15        -132.13821
  370 Torsion                 12     7     9    16          -9.10739
  371 Torsion                 13     8    14    21           1.17673
  372 Torsion                 13     8    14    22        -178.63773
  373 Torsion                 13    19    27    21           0.30863
  374 Torsion                 13    19    27    45        -179.29778
  375 Torsion                 13    20    29    46          56.19083
  376 Torsion                 13    20    29    47         -63.68989
  377 Torsion                 13    20    29    48         176.76149
  378 Torsion                 13    20    30    49         -55.29464
  379 Torsion                 13    20    30    50        -175.97384
  380 Torsion                 13    20    30    51          64.77298
  381 Torsion                 14     8    13    19          -2.19536
  382 Torsion                 14     8    13    20         176.02437
  383 Torsion                 14    21    27    19          -1.38046
  384 Torsion                 14    21    27    45         178.22591
  385 Torsion                 14    22    33    52          54.80945
  386 Torsion                 14    22    33    53         -65.49325
  387 Torsion                 14    22    33    54         174.91675
  388 Torsion                 14    22    34    55         -56.08354
  389 Torsion                 14    22    34    56        -176.91556
  390 Torsion                 14    22    34    57          63.56854
  391 Torsion                 17    10    18    25           2.10354
  392 Torsion                 17    10    18    26        -176.20594
  393 Torsion                 17    23    36    25           0.87313
  394 Torsion                 17    23    36    58        -179.31758
  395 Torsion                 17    24    38    59          55.69108
  396 Torsion                 17    24    38    60         -64.16007
  397 Torsion                 17    24    38    61         176.59797
  398 Torsion                 17    24    39    62         -57.16846
  399 Torsion                 17    24    39    63        -177.42864
  400 Torsion                 17    24    39    64          63.19008
  401 Torsion                 18    10    17    23          -2.15872
  402 Torsion                 18    10    17    24         176.20580
  403 Torsion                 18    25    36    23          -0.92973
  404 Torsion                 18    25    36    58         179.26099
  405 Torsion                 18    26    42    65          52.34581
  406 Torsion                 18    26    42    66         -68.26523
  407 Torsion                 18    26    42    67         173.10552
  408 Torsion                 18    26    43    68         -55.92510
  409 Torsion                 18    26    43    69        -177.03530
  410 Torsion                 18    26    43    70          63.72705
  411 Torsion                 19    13    20    29          66.46634
  412 Torsion                 19    13    20    30         -57.94050
  413 Torsion                 19    13    20    31        -176.05897
  414 Torsion                 19    27    21    32        -179.94004
  415 Torsion                 20    13    19    27        -176.82467
  416 Torsion                 20    13    19    28           3.21309
  417 Torsion                 21    14    22    33          56.03285
  418 Torsion                 21    14    22    34         -68.02444
  419 Torsion                 21    14    22    35         173.63220
  420 Torsion                 21    27    19    28        -179.72917
  421 Torsion                 22    14    21    27        -179.54097
  422 Torsion                 22    14    21    32          -0.98144
  423 Torsion                 23    17    24    38          65.52061
  424 Torsion                 23    17    24    39         -58.50191
  425 Torsion                 23    17    24    40        -176.39897
  426 Torsion                 23    36    25    41        -179.98847
  427 Torsion                 24    17    23    36        -177.77155
  428 Torsion                 24    17    23    37           2.42806
  429 Torsion                 25    18    26    42          48.25327
  430 Torsion                 25    18    26    43         -75.51332
  431 Torsion                 25    18    26    44         166.58002
  432 Torsion                 25    36    23    37        -179.32679
  433 Torsion                 26    18    25    36         177.81333
  434 Torsion                 26    18    25    41          -3.12782
  435 Torsion                 28    19    27    45           0.66443
  436 Torsion                 29    20    30    49        -179.16455
  437 Torsion                 29    20    30    50          60.15625
  438 Torsion                 29    20    30    51         -59.09693
  439 Torsion                 30    20    29    46        -178.94694
  440 Torsion                 30    20    29    47          61.17235
  441 Torsion                 30    20    29    48         -58.37627
  442 Torsion                 31    20    29    46         -61.34234
  443 Torsion                 31    20    29    47         178.77695
  444 Torsion                 31    20    29    48          59.22832
  445 Torsion                 31    20    30    49          63.05370
  446 Torsion                 31    20    30    50         -57.62549
  447 Torsion                 31    20    30    51        -176.87867
  448 Torsion                 32    21    27    45          -0.33367
  449 Torsion                 33    22    34    55         179.34282
  450 Torsion                 33    22    34    56          58.51080
  451 Torsion                 33    22    34    57         -61.00509
  452 Torsion                 34    22    33    52         178.71468
  453 Torsion                 34    22    33    53          58.41198
  454 Torsion                 34    22    33    54         -61.17802
  455 Torsion                 35    22    33    52         -63.35066
  456 Torsion                 35    22    33    53         176.34664
  457 Torsion                 35    22    33    54          56.75664
  458 Torsion                 35    22    34    55          62.12005
  459 Torsion                 35    22    34    56         -58.71197
  460 Torsion                 35    22    34    57        -178.22787
  461 Torsion                 37    23    36    58           0.48250
  462 Torsion                 38    24    39    62         178.71935
  463 Torsion                 38    24    39    63          58.45918
  464 Torsion                 38    24    39    64         -60.92211
  465 Torsion                 39    24    38    59        -179.33978
  466 Torsion                 39    24    38    60          60.80907
  467 Torsion                 39    24    38    61         -58.43289
  468 Torsion                 40    24    38    59         -62.34376
  469 Torsion                 40    24    38    60         177.80510
  470 Torsion                 40    24    38    61          58.56313
  471 Torsion                 40    24    39    62          61.19366
  472 Torsion                 40    24    39    63         -59.06651
  473 Torsion                 40    24    39    64        -178.44780
  474 Torsion                 41    25    36    58           0.20225
  475 Torsion                 42    26    43    68         178.70745
  476 Torsion                 42    26    43    69          57.59725
  477 Torsion                 42    26    43    70         -61.64040
  478 Torsion                 43    26    42    65         176.00709
  479 Torsion                 43    26    42    66          55.39604
  480 Torsion                 43    26    42    67         -63.23321
  481 Torsion                 44    26    42    65         -66.34615
  482 Torsion                 44    26    42    66         173.04280
  483 Torsion                 44    26    42    67          54.41356
  484 Torsion                 44    26    43    68          61.71573
  485 Torsion                 44    26    43    69         -59.39447
  486 Torsion                 44    26    43    70        -178.63211
  487 Torsion                 71     3     1    77         -92.80146
  488 Torsion                 71    83    84    86        -177.83551
  489 Torsion                 71    83    84    87           3.06371
  490 Torsion                 71    83    85    88         177.47791
  491 Torsion                 71    83    85    89           0.43640
  492 Torsion                 72    73    76    77           0.37477
  493 Torsion                 72    73    76    79         179.99320
  494 Torsion                 72    75    78    77          -0.12481
  495 Torsion                 72    75    78    80         179.10233
  496 Torsion                 73    72    75    74         178.98104
  497 Torsion                 73    72    75    78          -1.33227
  498 Torsion                 73    76    77    78          -1.82776
  499 Torsion                 74    75    72    81          -0.77144
  500 Torsion                 74    75    78    77         179.56213
  501 Torsion                 74    75    78    80          -1.21073
  502 Torsion                 75    72    73    76           1.20672
  503 Torsion                 75    72    73    82        -178.89234
  504 Torsion                 75    78    77    76           1.70230
  505 Torsion                 76    73    72    81        -179.04044
  506 Torsion                 76    77    78    80        -177.53715
  507 Torsion                 77    76    73    82        -179.52618
  508 Torsion                 78    75    72    81         178.91525
  509 Torsion                 78    77    76    79         178.54117
  510 Torsion                 79    76    73    82           0.09225
  511 Torsion                 81    72    73    82           0.86050
  512 Torsion                 83    71    94    95         -61.52363
  513 Torsion                 83    71    94    96          60.23953
  514 Torsion                 83    71    94    97         179.21713
  515 Torsion                 83    84    86    90           0.29622
  516 Torsion                 83    84    86    91        -179.73277
  517 Torsion                 83    85    88    90           0.55235
  518 Torsion                 83    85    88    92        -177.79405
  519 Torsion                 84    83    71    94          18.79390
  520 Torsion                 84    83    85    88          -1.38938
  521 Torsion                 84    83    85    89        -178.43090
  522 Torsion                 84    86    90    88          -1.16173
  523 Torsion                 84    86    90    93         178.11650
  524 Torsion                 85    83    71    94        -159.98894
  525 Torsion                 85    83    84    86           0.96516
  526 Torsion                 85    83    84    87        -178.13562
  527 Torsion                 85    88    90    86           0.74061
  528 Torsion                 85    88    90    93        -178.53655
  529 Torsion                 86    90    88    92         179.07679
  530 Torsion                 87    84    86    90         179.40826
  531 Torsion                 87    84    86    91          -0.62074
  532 Torsion                 88    90    86    91         178.86748
  533 Torsion                 89    85    88    90         177.53016
  534 Torsion                 89    85    88    92          -0.81623
  535 Torsion                 91    86    90    93          -1.85429
  536 Torsion                 92    88    90    93          -0.20037


            XYZ format geometry
            -------------------
    97
 geometry
 C                     1.37156256     0.84991247    -1.17199476
 O                     1.23524916     1.56015566    -2.14032463
 Ni                    0.11754603    -0.44105569    -0.80916497
 C                    -1.14399257     0.43193310     0.32127997
 N                    -2.03420620    -0.35485768     0.94949749
 N                    -1.50640075     1.69551046     0.55070647
 C                    -3.06016120     0.37408415     1.69553147
 C                    -1.94290589    -1.77999708     0.96708463
 C                    -2.76910265     1.82066106     1.28840966
 C                    -0.83053012     2.85962070     0.06988673
 H                    -4.05674517     0.04178847     1.40082866
 H                    -2.94702125     0.20581820     2.76952933
 C                    -2.54016395    -2.50632504    -0.06869526
 C                    -1.26969109    -2.40154934     2.02548448
 H                    -3.54047590     2.23397744     0.63425214
 H                    -2.65020927     2.49011996     2.14047578
 C                     0.02880498     3.52949533     0.94550739
 C                    -1.07075158     3.29959616    -1.23439522
 C                    -2.40875257    -3.89117606    -0.04855433
 C                    -3.34292411    -1.83134586    -1.16417057
 C                    -1.18255850    -3.78811237     2.01499761
 C                    -0.65215249    -1.60570097     3.15874032
 C                     0.69519138     4.65115985     0.46589807
 C                     0.21704070     3.09031805     2.38652051
 C                    -0.38376311     4.42556288    -1.66963855
 C                    -2.07061028     2.60848561    -2.14234141
 C                    -1.73472450    -4.52590419     0.97998298
 H                    -2.83941753    -4.47949762    -0.84910069
 C                    -4.82453318    -2.20004035    -1.03966031
 C                    -2.80529282    -2.16382969    -2.55599888
 H                    -3.25511024    -0.75126175    -1.02749882
 H                    -0.65664127    -4.29714415     2.81349154
 C                     0.83618371    -1.91351853     3.32258435
 C                    -1.40796701    -1.85521245     4.46658165
 H                    -0.73560629    -0.54502458     2.91197662
 C                     0.49740303     5.08961045    -0.83248765
 H                     1.37869229     5.18507554     1.11498638
 C                    -0.34820348     4.13827637     3.35036763
 C                     1.67988281     2.79465525     2.71368444
 H                    -0.34028079     2.16162242     2.53145629
 H                    -0.52774242     4.78006674    -2.68218894
 C                    -1.52589099     2.35371061    -3.54776575
 C                    -3.36613686     3.42418307    -2.21517863
 H                    -2.30309335     1.63499067    -1.70444280
 H                    -1.63285759    -5.60348507     0.97264310
 H                    -5.21915818    -1.94772961    -0.05316509
 H                    -4.97218661    -3.27138793    -1.19021927
 H                    -5.41423358    -1.67149505    -1.79074260
 H                    -1.74614679    -1.91400217    -2.63776980
 H                    -3.35854029    -1.60773818    -3.31535627
 H                    -2.91600896    -3.22736879    -2.77740090
 H                     1.37376414    -1.75877232     2.38770102
 H                     0.99604808    -2.94741802     3.63464383
 H                     1.27467781    -1.26398492     4.08254517
 H                    -2.47124468    -1.62810851     4.36700044
 H                    -0.99811933    -1.24131173     5.27056664
 H                    -1.32259695    -2.90182200     4.76622034
 H                     1.03243341     5.95852112    -1.19445922
 H                    -1.39752949     4.35833302     3.14372278
 H                     0.20597562     5.07549573     3.26806501
 H                    -0.26514071     3.79159454     4.38240902
 H                     2.08689796     2.03458278     2.04963285
 H                     1.77126212     2.43882675     3.74229619
 H                     2.29541211     3.69107726     2.61594548
 H                    -0.57019243     1.83617885    -3.50213894
 H                    -1.38540126     3.28898423    -4.09406352
 H                    -2.23720389     1.74955893    -4.11499535
 H                    -3.79472006     3.60493821    -1.22743991
 H                    -4.10994036     2.90727828    -2.82488128
 H                    -3.17399714     4.39765432    -2.67192505
 N                     0.89529908    -1.61279902    -1.98508609
 C                     4.84824224     1.30195784     1.27668344
 C                     4.53067466     2.26066653     0.32063958
 H                     4.32255590    -0.59077624     2.14297703
 C                     4.06516059     0.16305521     1.40958851
 C                     3.41654167     2.09117673    -0.48383193
 C                     2.61133546     0.96587392    -0.32980580
 C                     2.94717941    -0.00414272     0.60424231
 H                     3.14301089     2.81945801    -1.23678741
 H                     2.33406011    -0.89347070     0.68533270
 H                     5.71093502     1.44325262     1.91574053
 H                     5.15306631     3.13954365     0.20652140
 C                     1.81246032    -2.56425331    -1.56023944
 C                     3.00288541    -2.86779096    -2.23899767
 C                     1.53555421    -3.29594945    -0.39212915
 C                     3.85172597    -3.86486018    -1.77697118
 H                     3.27940644    -2.31500789    -3.12561879
 C                     2.38154822    -4.29230150     0.05599189
 H                     0.60710385    -3.09166616     0.12994551
 C                     3.54970940    -4.59482314    -0.63785866
 H                     4.76545073    -4.07149198    -2.32193643
 H                     2.11478373    -4.85843760     0.94161303
 H                     4.20267363    -5.39016272    -0.30308141
 C                     0.99050912    -1.22375285    -3.38136098
 H                     1.94799900    -0.76502143    -3.65637616
 H                     0.83417612    -2.09415980    -4.03025955
 H                     0.21832838    -0.48810879    -3.60294862

 ==============================================================================
                                internuclear distances
 ------------------------------------------------------------------------------
       center one      |      center two      | atomic units |  angstroms
 ------------------------------------------------------------------------------
    2 O                |   1 C                |     2.28390  |     1.20859
    3 Ni               |   1 C                |     3.46949  |     1.83597
    4 C                |   3 Ni               |     3.60115  |     1.90565
    5 N                |   4 C                |     2.53968  |     1.34394
    6 N                |   4 C                |     2.52164  |     1.33439
    7 C                |   5 N                |     2.76476  |     1.46305
    8 C                |   5 N                |     2.69885  |     1.42817
    9 C                |   6 N                |     2.77364  |     1.46775
    9 C                |   7 C                |     2.89261  |     1.53070
   10 C                |   6 N                |     2.70115  |     1.42938
   11 H                |   7 C                |     2.06184  |     1.09108
   12 H                |   7 C                |     2.06542  |     1.09297
   13 C                |   8 C                |     2.64366  |     1.39897
   14 C                |   8 C                |     2.64545  |     1.39991
   15 H                |   9 C                |     2.06471  |     1.09260
   16 H                |   9 C                |     2.06000  |     1.09010
   17 C                |  10 C                |     2.64150  |     1.39782
   18 C                |  10 C                |     2.64051  |     1.39730
   19 C                |  13 C                |     2.62902  |     1.39122
   20 C                |  13 C                |     2.86597  |     1.51660
   21 C                |  14 C                |     2.62547  |     1.38934
   22 C                |  14 C                |     2.86529  |     1.51624
   23 C                |  17 C                |     2.62681  |     1.39005
   24 C                |  17 C                |     2.86892  |     1.51817
   25 C                |  18 C                |     2.62474  |     1.38895
   26 C                |  18 C                |     2.86698  |     1.51714
   27 C                |  19 C                |     2.61513  |     1.38387
   27 C                |  21 C                |     2.61881  |     1.38581
   28 H                |  19 C                |     2.04621  |     1.08281
   29 C                |  20 C                |     2.89480  |     1.53186
   30 C                |  20 C                |     2.88873  |     1.52865
   31 H                |  20 C                |     2.06402  |     1.09223
   32 H                |  21 C                |     2.04693  |     1.08319
   33 C                |  22 C                |     2.88871  |     1.52864
   34 C                |  22 C                |     2.89317  |     1.53100
   35 H                |  22 C                |     2.06395  |     1.09220
   36 C                |  23 C                |     2.61655  |     1.38462
   36 C                |  25 C                |     2.61728  |     1.38500
   37 H                |  23 C                |     2.04715  |     1.08331
   38 C                |  24 C                |     2.89487  |     1.53190
   39 C                |  24 C                |     2.88724  |     1.52786
   40 H                |  24 C                |     2.06499  |     1.09274
   41 H                |  25 C                |     2.04550  |     1.08243
   42 C                |  26 C                |     2.88878  |     1.52867
   43 C                |  26 C                |     2.89631  |     1.53266
   44 H                |  26 C                |     2.06447  |     1.09247
   45 H                |  27 C                |     2.04546  |     1.08241
   46 H                |  29 C                |     2.06367  |     1.09205
   47 H                |  29 C                |     2.06340  |     1.09190
   48 H                |  29 C                |     2.06251  |     1.09144
   49 H                |  30 C                |     2.06222  |     1.09128
   50 H                |  30 C                |     2.06313  |     1.09176
   51 H                |  30 C                |     2.06352  |     1.09197
   52 H                |  33 C                |     2.05880  |     1.08947
   53 H                |  33 C                |     2.06308  |     1.09174
   54 H                |  33 C                |     2.06293  |     1.09166
   55 H                |  34 C                |     2.06322  |     1.09181
   56 H                |  34 C                |     2.06252  |     1.09144
   57 H                |  34 C                |     2.06358  |     1.09200
   58 H                |  36 C                |     2.04605  |     1.08272
   59 H                |  38 C                |     2.06336  |     1.09188
   60 H                |  38 C                |     2.06341  |     1.09191
   61 H                |  38 C                |     2.06335  |     1.09188
   62 H                |  39 C                |     2.05654  |     1.08827
   63 H                |  39 C                |     2.06405  |     1.09225
   64 H                |  39 C                |     2.06318  |     1.09179
   65 H                |  42 C                |     2.05562  |     1.08779
   66 H                |  42 C                |     2.06397  |     1.09221
   67 H                |  42 C                |     2.06380  |     1.09211
   68 H                |  43 C                |     2.06317  |     1.09178
   69 H                |  43 C                |     2.06333  |     1.09187
   70 H                |  43 C                |     2.06420  |     1.09233
   71 N                |   3 Ni               |     3.46427  |     1.83321
   73 C                |  72 C                |     2.62800  |     1.39068
   75 C                |  72 C                |     2.62392  |     1.38852
   75 C                |  74 H                |     2.04612  |     1.08276
   76 C                |  73 C                |     2.61657  |     1.38463
   77 C                |   1 C                |     2.84073  |     1.50325
   77 C                |  76 C                |     2.63099  |     1.39226
   78 C                |  75 C                |     2.62285  |     1.38796
   78 C                |  77 C                |     2.62268  |     1.38787
   79 H                |  76 C                |     2.04593  |     1.08266
   80 H                |  78 C                |     2.04701  |     1.08323
   81 H                |  72 C                |     2.04632  |     1.08287
   82 H                |  73 C                |     2.04651  |     1.08297
   83 C                |  71 N                |     2.62321  |     1.38814
   84 C                |  83 C                |     2.65233  |     1.40355
   85 C                |  83 C                |     2.65675  |     1.40589
   86 C                |  84 C                |     2.62403  |     1.38858
   87 H                |  84 C                |     2.04242  |     1.08080
   88 C                |  85 C                |     2.61113  |     1.38175
   89 H                |  85 C                |     2.04956  |     1.08458
   90 C                |  86 C                |     2.61960  |     1.38623
   90 C                |  88 C                |     2.63042  |     1.39196
   91 H                |  86 C                |     2.04805  |     1.08378
   92 H                |  88 C                |     2.04928  |     1.08443
   93 H                |  90 C                |     2.04493  |     1.08213
   94 C                |  71 N                |     2.74499  |     1.45259
   95 H                |  94 C                |     2.07255  |     1.09675
   96 H                |  94 C                |     2.07278  |     1.09687
   97 H                |  94 C                |     2.05845  |     1.08928
 ------------------------------------------------------------------------------
                         number of included internuclear distances:        101
 ==============================================================================



 ==============================================================================
                                 internuclear angles
 ------------------------------------------------------------------------------
        center 1       |       center 2       |       center 3       |  degrees
 ------------------------------------------------------------------------------
    2 O                |   1 C                |   3 Ni               |   119.64
    2 O                |   1 C                |  77 C                |   119.77
    3 Ni               |   1 C                |  77 C                |   120.45
    1 C                |   3 Ni               |   4 C                |   104.32
    1 C                |   3 Ni               |  71 N                |    91.88
    4 C                |   3 Ni               |  71 N                |   162.59
    3 Ni               |   4 C                |   5 N                |   116.59
    3 Ni               |   4 C                |   6 N                |   135.69
    5 N                |   4 C                |   6 N                |   107.10
    4 C                |   5 N                |   7 C                |   114.28
    4 C                |   5 N                |   8 C                |   123.20
    7 C                |   5 N                |   8 C                |   122.39
    4 C                |   6 N                |   9 C                |   113.63
    4 C                |   6 N                |  10 C                |   125.80
    9 C                |   6 N                |  10 C                |   120.42
    5 N                |   7 C                |   9 C                |   101.65
    5 N                |   7 C                |  11 H                |   110.55
    5 N                |   7 C                |  12 H                |   110.60
    9 C                |   7 C                |  11 H                |   112.93
    9 C                |   7 C                |  12 H                |   112.78
   11 H                |   7 C                |  12 H                |   108.24
    5 N                |   8 C                |  13 C                |   118.79
    5 N                |   8 C                |  14 C                |   118.89
   13 C                |   8 C                |  14 C                |   122.31
    6 N                |   9 C                |   7 C                |   102.51
    6 N                |   9 C                |  15 H                |   109.80
    6 N                |   9 C                |  16 H                |   110.57
    7 C                |   9 C                |  15 H                |   112.49
    7 C                |   9 C                |  16 H                |   113.15
   15 H                |   9 C                |  16 H                |   108.22
    6 N                |  10 C                |  17 C                |   118.05
    6 N                |  10 C                |  18 C                |   119.28
   17 C                |  10 C                |  18 C                |   122.65
    8 C                |  13 C                |  19 C                |   117.76
    8 C                |  13 C                |  20 C                |   121.99
   19 C                |  13 C                |  20 C                |   120.23
    8 C                |  14 C                |  21 C                |   117.88
    8 C                |  14 C                |  22 C                |   121.86
   21 C                |  14 C                |  22 C                |   120.26
   10 C                |  17 C                |  23 C                |   117.73
   10 C                |  17 C                |  24 C                |   122.15
   23 C                |  17 C                |  24 C                |   120.10
   10 C                |  18 C                |  25 C                |   117.56
   10 C                |  18 C                |  26 C                |   121.90
   25 C                |  18 C                |  26 C                |   120.51
   13 C                |  19 C                |  27 C                |   120.89
   13 C                |  19 C                |  28 H                |   119.51
   27 C                |  19 C                |  28 H                |   119.60
   13 C                |  20 C                |  29 C                |   110.25
   13 C                |  20 C                |  30 C                |   112.01
   13 C                |  20 C                |  31 H                |   107.89
   29 C                |  20 C                |  30 C                |   111.21
   29 C                |  20 C                |  31 H                |   107.79
   30 C                |  20 C                |  31 H                |   107.50
   14 C                |  21 C                |  27 C                |   120.80
   14 C                |  21 C                |  32 H                |   119.60
   27 C                |  21 C                |  32 H                |   119.59
   14 C                |  22 C                |  33 C                |   111.77
   14 C                |  22 C                |  34 C                |   110.60
   14 C                |  22 C                |  35 H                |   108.04
   33 C                |  22 C                |  34 C                |   110.87
   33 C                |  22 C                |  35 H                |   107.11
   34 C                |  22 C                |  35 H                |   108.27
   17 C                |  23 C                |  36 C                |   120.70
   17 C                |  23 C                |  37 H                |   119.57
   36 C                |  23 C                |  37 H                |   119.73
   17 C                |  24 C                |  38 C                |   110.71
   17 C                |  24 C                |  39 C                |   112.21
   17 C                |  24 C                |  40 H                |   107.97
   38 C                |  24 C                |  39 C                |   110.54
   38 C                |  24 C                |  40 H                |   108.04
   39 C                |  24 C                |  40 H                |   107.18
   18 C                |  25 C                |  36 C                |   120.93
   18 C                |  25 C                |  41 H                |   119.53
   36 C                |  25 C                |  41 H                |   119.54
   18 C                |  26 C                |  42 C                |   113.03
   18 C                |  26 C                |  43 C                |   110.06
   18 C                |  26 C                |  44 H                |   107.84
   42 C                |  26 C                |  43 C                |   110.26
   42 C                |  26 C                |  44 H                |   107.21
   43 C                |  26 C                |  44 H                |   108.27
   19 C                |  27 C                |  21 C                |   120.33
   19 C                |  27 C                |  45 H                |   119.83
   21 C                |  27 C                |  45 H                |   119.84
   20 C                |  29 C                |  46 H                |   111.55
   20 C                |  29 C                |  47 H                |   110.84
   20 C                |  29 C                |  48 H                |   110.49
   46 H                |  29 C                |  47 H                |   107.60
   46 H                |  29 C                |  48 H                |   108.33
   47 H                |  29 C                |  48 H                |   107.89
   20 C                |  30 C                |  49 H                |   111.09
   20 C                |  30 C                |  50 H                |   110.14
   20 C                |  30 C                |  51 H                |   111.15
   49 H                |  30 C                |  50 H                |   108.85
   49 H                |  30 C                |  51 H                |   107.83
   50 H                |  30 C                |  51 H                |   107.68
   22 C                |  33 C                |  52 H                |   111.09
   22 C                |  33 C                |  53 H                |   111.34
   22 C                |  33 C                |  54 H                |   110.24
   52 H                |  33 C                |  53 H                |   107.91
   52 H                |  33 C                |  54 H                |   108.34
   53 H                |  33 C                |  54 H                |   107.80
   22 C                |  34 C                |  55 H                |   111.65
   22 C                |  34 C                |  56 H                |   110.62
   22 C                |  34 C                |  57 H                |   110.61
   55 H                |  34 C                |  56 H                |   108.41
   55 H                |  34 C                |  57 H                |   107.49
   56 H                |  34 C                |  57 H                |   107.92
   23 C                |  36 C                |  25 C                |   120.39
   23 C                |  36 C                |  58 H                |   119.80
   25 C                |  36 C                |  58 H                |   119.81
   24 C                |  38 C                |  59 H                |   111.93
   24 C                |  38 C                |  60 H                |   110.64
   24 C                |  38 C                |  61 H                |   110.45
   59 H                |  38 C                |  60 H                |   107.49
   59 H                |  38 C                |  61 H                |   108.42
   60 H                |  38 C                |  61 H                |   107.77
   24 C                |  39 C                |  62 H                |   111.26
   24 C                |  39 C                |  63 H                |   110.17
   24 C                |  39 C                |  64 H                |   111.21
   62 H                |  39 C                |  63 H                |   108.41
   62 H                |  39 C                |  64 H                |   107.94
   63 H                |  39 C                |  64 H                |   107.74
   26 C                |  42 C                |  65 H                |   110.72
   26 C                |  42 C                |  66 H                |   111.28
   26 C                |  42 C                |  67 H                |   109.73
   65 H                |  42 C                |  66 H                |   108.38
   65 H                |  42 C                |  67 H                |   109.32
   66 H                |  42 C                |  67 H                |   107.32
   26 C                |  43 C                |  68 H                |   112.14
   26 C                |  43 C                |  69 H                |   110.51
   26 C                |  43 C                |  70 H                |   110.21
   68 H                |  43 C                |  69 H                |   108.43
   68 H                |  43 C                |  70 H                |   107.45
   69 H                |  43 C                |  70 H                |   107.95
    3 Ni               |  71 N                |  83 C                |   121.47
    3 Ni               |  71 N                |  94 C                |   118.24
   83 C                |  71 N                |  94 C                |   115.75
   73 C                |  72 C                |  75 C                |   120.16
   73 C                |  72 C                |  81 H                |   119.85
   75 C                |  72 C                |  81 H                |   119.99
   72 C                |  73 C                |  76 C                |   119.92
   72 C                |  73 C                |  82 H                |   120.04
   76 C                |  73 C                |  82 H                |   120.04
   72 C                |  75 C                |  74 H                |   120.12
   72 C                |  75 C                |  78 C                |   119.84
   74 H                |  75 C                |  78 C                |   120.04
   73 C                |  76 C                |  77 C                |   120.00
   73 C                |  76 C                |  79 H                |   121.67
   77 C                |  76 C                |  79 H                |   118.33
    1 C                |  77 C                |  76 C                |   118.51
    1 C                |  77 C                |  78 C                |   121.51
   76 C                |  77 C                |  78 C                |   119.96
   75 C                |  78 C                |  77 C                |   120.08
   75 C                |  78 C                |  80 H                |   120.76
   77 C                |  78 C                |  80 H                |   119.16
   71 N                |  83 C                |  84 C                |   124.10
   71 N                |  83 C                |  85 C                |   118.74
   84 C                |  83 C                |  85 C                |   117.15
   83 C                |  84 C                |  86 C                |   120.85
   83 C                |  84 C                |  87 H                |   120.21
   86 C                |  84 C                |  87 H                |   118.93
   83 C                |  85 C                |  88 C                |   121.61
   83 C                |  85 C                |  89 H                |   118.07
   88 C                |  85 C                |  89 H                |   120.25
   84 C                |  86 C                |  90 C                |   121.22
   84 C                |  86 C                |  91 H                |   119.01
   90 C                |  86 C                |  91 H                |   119.77
   85 C                |  88 C                |  90 C                |   120.59
   85 C                |  88 C                |  92 H                |   119.39
   90 C                |  88 C                |  92 H                |   120.00
   86 C                |  90 C                |  88 C                |   118.56
   86 C                |  90 C                |  93 H                |   120.65
   88 C                |  90 C                |  93 H                |   120.79
   71 N                |  94 C                |  95 H                |   114.22
   71 N                |  94 C                |  96 H                |   110.29
   71 N                |  94 C                |  97 H                |   109.27
   95 H                |  94 C                |  96 H                |   107.94
   95 H                |  94 C                |  97 H                |   106.58
   96 H                |  94 C                |  97 H                |   108.33
 ------------------------------------------------------------------------------
                            number of included internuclear angles:        180
 ==============================================================================



                      Basis "ao basis" -> "" (cartesian)
                      -----
  C (Carbon)
  ----------
            Exponent  Coefficients 
       -------------- ---------------------------------------------------------
  1 S  8.50603840E+03  0.000534
  1 S  1.27573290E+03  0.004125
  1 S  2.90311870E+02  0.021171
  1 S  8.20562000E+01  0.082418
  1 S  2.64796410E+01  0.240129

  2 S  9.24145850E+00  1.000000

  3 S  3.36435300E+00  1.000000

  4 S  8.71741640E-01  1.000000

  5 S  3.63523520E-01  1.000000

  6 S  1.28731350E-01  1.000000

  7 P  3.47094960E+01  0.005330
  7 P  7.95908830E+00  0.035866
  7 P  2.37869720E+00  0.142003
  7 P  8.15400650E-01  0.342031

  8 P  2.89537850E-01  1.000000

  9 P  1.00847540E-01  1.000000

  H (Hydrogen)
  ------------
            Exponent  Coefficients 
       -------------- ---------------------------------------------------------
  1 S  3.40613410E+01  0.006025
  1 S  5.12357460E+00  0.045021
  1 S  1.16466260E+00  0.201897

  2 S  3.27230410E-01  1.000000

  3 S  1.03072410E-01  1.000000

  O (Oxygen)
  ----------
            Exponent  Coefficients 
       -------------- ---------------------------------------------------------
  1 S  1.59026475E+04  0.000515
  1 S  2.38495378E+03  0.003982
  1 S  5.42719572E+02  0.020477
  1 S  1.53404079E+02  0.080262
  1 S  4.95457161E+01  0.237668

  2 S  1.73396499E+01  1.000000

  3 S  6.33033553E+00  1.000000

  4 S  1.69958822E+00  1.000000

  5 S  6.89544913E-01  1.000000

  6 S  2.39360282E-01  1.000000

  7 P  6.32705240E+01  0.006071
  7 P  1.46233123E+01  0.041948
  7 P  4.44895180E+00  0.161569
[...]
  ----- ------------  ---------------      ----- ------------  ---------------
   739      1.529591  83 C  s               743      1.411273  83 C  s         
   740     -1.192114  83 C  s               686     -1.025998  76 C  s         
   682     -0.999827  76 C  s               802     -0.977321  88 C  s         
   716      0.955267  78 C  s               742     -0.914397  83 C  s         
   738     -0.897153  83 C  s               741      0.888517  83 C  s         

 Vector  847  Occ=0.000000D+00  E= 6.331156D+01
              MO Center=  1.6D+00,  8.9D-01,  7.1D-01, r^2= 8.8D+00
   Bfn.  Coefficient  Atom+Function         Bfn.  Coefficient  Atom+Function  
  ----- ------------  ---------------      ----- ------------  ---------------
   716     -1.425900  78 C  s                 6      1.401375   1 C  s         
   712     -1.391870  78 C  s               701     -1.227597  77 C  s         
   713      1.087437  78 C  s               326     -1.072783  24 C  s         
   697     -1.040551  77 C  s               322     -1.017322  24 C  s         
     2      0.991983   1 C  s               296      0.987556  22 C  s         

 Vector  848  Occ=0.000000D+00  E= 6.332396D+01
              MO Center=  2.4D+00, -3.8D-01, -2.0D-01, r^2= 1.0D+01
   Bfn.  Coefficient  Atom+Function         Bfn.  Coefficient  Atom+Function  
  ----- ------------  ---------------      ----- ------------  ---------------
   739      1.243671  83 C  s               686      1.185869  76 C  s         
   743      1.142378  83 C  s               712     -1.119762  78 C  s         
   716     -1.077879  78 C  s               682      1.017938  76 C  s         
   701      1.015984  77 C  s               740     -0.970907  83 C  s         
   697      0.962969  77 C  s               649     -0.902949  73 C  s         

 Vector  849  Occ=0.000000D+00  E= 6.333588D+01
              MO Center= -9.1D-01,  4.7D-01, -3.4D-01, r^2= 1.4D+01
   Bfn.  Coefficient  Atom+Function         Bfn.  Coefficient  Atom+Function  
  ----- ------------  ---------------      ----- ------------  ---------------
   266      1.361026  20 C  s               356     -1.348332  26 C  s         
   352     -1.263914  26 C  s               262      1.184661  20 C  s         
   142      1.079559   8 C  py                6     -1.064866   1 C  s         
   236      1.034689  18 C  s               326     -0.995005  24 C  s         
   322     -0.988404  24 C  s               353      0.988537  26 C  s         

 Vector  850  Occ=0.000000D+00  E= 6.335229D+01
              MO Center=  2.1D+00, -3.0D+00, -1.1D+00, r^2= 4.3D+00
   Bfn.  Coefficient  Atom+Function         Bfn.  Coefficient  Atom+Function  
  ----- ------------  ---------------      ----- ------------  ---------------
   769      1.972671  85 C  s               773      1.962823  85 C  s         
   770     -1.538289  85 C  s               758     -1.413988  84 C  s         
   754     -1.359412  84 C  s               772     -1.197048  85 C  s         
   768     -1.156624  85 C  s               771      1.148961  85 C  s         
   755      1.060555  84 C  s               784      1.063346  86 C  s         

 Vector  851  Occ=0.000000D+00  E= 6.340782D+01
              MO Center= -1.4D+00, -4.3D-01,  5.4D-01, r^2= 1.2D+01
   Bfn.  Coefficient  Atom+Function         Bfn.  Coefficient  Atom+Function  
  ----- ------------  ---------------      ----- ------------  ---------------
   185      2.042980  13 C  s               143      1.694950   8 C  pz        
   200     -1.681507  14 C  s               181      1.474522  13 C  s         
   196     -1.381315  14 C  s               221     -1.331153  17 C  s         
   173      1.209404  10 C  pz              182     -1.160664  13 C  s         
   194      1.132807  13 C  pz              236      1.129810  18 C  s         

 Vector  852  Occ=0.000000D+00  E= 6.342077D+01
              MO Center= -1.7D+00, -2.0D+00,  8.4D-01, r^2= 6.8D+00
   Bfn.  Coefficient  Atom+Function         Bfn.  Coefficient  Atom+Function  
  ----- ------------  ---------------      ----- ------------  ---------------
   134      2.904344   8 C  s               130      1.756509   8 C  s         
   209      1.570471  14 C  pz              200     -1.448677  14 C  s         
   131     -1.385338   8 C  s               142     -1.302610   8 C  py        
   133     -1.246639   8 C  s               281     -1.167574  21 C  s         
   251     -1.156581  19 C  s               247     -1.105990  19 C  s         

 Vector  853  Occ=0.000000D+00  E= 6.342313D+01
              MO Center= -1.1D+00,  1.2D+00,  7.0D-02, r^2= 1.3D+01
   Bfn.  Coefficient  Atom+Function         Bfn.  Coefficient  Atom+Function  
  ----- ------------  ---------------      ----- ------------  ---------------
   245      1.693239  18 C  pz              236      1.596570  18 C  s         
   173      1.574785  10 C  pz              164     -1.324269  10 C  s         
   134      1.255420   8 C  s               356      1.179204  26 C  s         
   232      1.172934  18 C  s               194     -1.138308  13 C  pz        
   185     -1.099955  13 C  s               221     -0.949206  17 C  s         

 Vector  854  Occ=0.000000D+00  E= 6.344225D+01
              MO Center= -4.7D-01,  2.9D+00, -2.2D-01, r^2= 6.3D+00
   Bfn.  Coefficient  Atom+Function         Bfn.  Coefficient  Atom+Function  
  ----- ------------  ---------------      ----- ------------  ---------------
   164      2.858430  10 C  s               160      1.792318  10 C  s         
   161     -1.415492  10 C  s               221     -1.410740  17 C  s         
   163     -1.274655  10 C  s               230      1.273670  17 C  pz        
   311     -1.212750  23 C  s               341     -1.172846  25 C  s         
   172      1.151349  10 C  py              162      1.118458  10 C  s         

 Vector  855  Occ=0.000000D+00  E= 6.355741D+01
              MO Center=  3.0D+00, -9.0D-01, -1.5D-01, r^2= 9.0D+00
   Bfn.  Coefficient  Atom+Function         Bfn.  Coefficient  Atom+Function  
  ----- ------------  ---------------      ----- ------------  ---------------
   701      2.083941  77 C  s               716     -2.010136  78 C  s         
   671      1.880054  75 C  s               686     -1.824842  76 C  s         
   653      1.766092  73 C  s               638     -1.713945  72 C  s         
   743     -1.491572  83 C  s               773      1.480441  85 C  s         
   806     -1.434522  88 C  s               824      1.419837  90 C  s         

 Vector  856  Occ=0.000000D+00  E= 6.356703D+01
              MO Center=  2.9D+00, -1.6D+00, -4.7D-01, r^2= 8.3D+00
   Bfn.  Coefficient  Atom+Function         Bfn.  Coefficient  Atom+Function  
  ----- ------------  ---------------      ----- ------------  ---------------
   743      2.134241  83 C  s               773     -1.919857  85 C  s         
   716     -1.866188  78 C  s               806      1.829438  88 C  s         
   824     -1.770020  90 C  s               701      1.754512  77 C  s         
   758     -1.759701  84 C  s               788      1.750006  86 C  s         
   653      1.505276  73 C  s               671      1.508208  75 C  s         

 Vector  857  Occ=0.000000D+00  E= 6.359179D+01
              MO Center= -1.7D+00, -2.8D+00,  9.4D-01, r^2= 3.5D+00
   Bfn.  Coefficient  Atom+Function         Bfn.  Coefficient  Atom+Function  
  ----- ------------  ---------------      ----- ------------  ---------------
   134      3.540734   8 C  s               185     -3.045368  13 C  s         
   200     -2.972226  14 C  s               281      2.734001  21 C  s         
   251      2.620767  19 C  s               371     -2.495226  27 C  s         
   142     -2.312281   8 C  py              194     -1.656798  13 C  pz        
   209      1.631444  14 C  pz              130      1.371108   8 C  s         

 Vector  858  Occ=0.000000D+00  E= 6.360067D+01
              MO Center= -3.2D-01,  3.6D+00, -2.8D-01, r^2= 3.0D+00
   Bfn.  Coefficient  Atom+Function         Bfn.  Coefficient  Atom+Function  
  ----- ------------  ---------------      ----- ------------  ---------------
   164      3.670232  10 C  s               236     -3.132483  18 C  s         
   221     -2.972353  17 C  s               311      2.666459  23 C  s         
   341      2.671992  25 C  s               458     -2.504722  36 C  s         
   230      2.103440  17 C  pz              172      1.943572  10 C  py        
   243     -1.512456  18 C  px              350      1.507314  25 C  pz        

 Vector  859  Occ=0.000000D+00  E= 8.881650D+01
              MO Center= -1.7D+00,  2.3D-01,  6.1D-01, r^2= 2.3D+00
   Bfn.  Coefficient  Atom+Function         Bfn.  Coefficient  Atom+Function  
  ----- ------------  ---------------      ----- ------------  ---------------
    85      2.312726   5 N  s               142     -1.993677   8 C  py        
    86     -1.801667   5 N  s               100     -1.716747   6 N  s         
    89      1.631933   5 N  s                84      1.358264   5 N  s         
   101      1.337288   6 N  s               172     -1.320674  10 C  py        
    87      1.274500   5 N  s               104     -1.267815   6 N  s         

 Vector  860  Occ=0.000000D+00  E= 8.886254D+01
              MO Center= -6.9D-01,  2.7D-01, -3.3D-01, r^2= 5.5D+00
   Bfn.  Coefficient  Atom+Function         Bfn.  Coefficient  Atom+Function  
  ----- ------------  ---------------      ----- ------------  ---------------
   100      2.168587   6 N  s               619      1.800677  71 N  s         
   101     -1.693944   6 N  s               104      1.528735   6 N  s         
   620     -1.399472  71 N  s                99      1.272338   6 N  s         
   102      1.212054   6 N  s               103     -1.177019   6 N  s         
   172      1.090446  10 C  py              618      1.058501  71 N  s         

 Vector  861  Occ=0.000000D+00  E= 8.886753D+01
              MO Center= -3.0D-01, -7.7D-01, -7.7D-01, r^2= 5.2D+00
   Bfn.  Coefficient  Atom+Function         Bfn.  Coefficient  Atom+Function  
  ----- ------------  ---------------      ----- ------------  ---------------
   619      2.244086  71 N  s               620     -1.744633  71 N  s         
    85     -1.612280   5 N  s               623      1.372786  71 N  s         
   618      1.319008  71 N  s                86      1.259784   5 N  s         
   621      1.222852  71 N  s                89     -1.180866   5 N  s         
   622     -1.151036  71 N  s               100     -1.134850   6 N  s         

 Vector  862  Occ=0.000000D+00  E= 1.171396D+02
              MO Center=  1.2D-01, -4.4D-01, -8.1D-01, r^2= 3.8D-02
   Bfn.  Coefficient  Atom+Function         Bfn.  Coefficient  Atom+Function  
  ----- ------------  ---------------      ----- ------------  ---------------
    38      0.897503   3 Ni pz               36      0.442503   3 Ni px        
    37     -0.364033   3 Ni py               41     -0.342691   3 Ni pz        
    45     -0.319274   3 Ni px               35     -0.261326   3 Ni s         
   725     -0.253691  78 C  pz              731      0.222399  80 H  s         
   671      0.212422  75 C  s               723     -0.186905  78 C  px        

 Vector  863  Occ=0.000000D+00  E= 1.172242D+02
              MO Center=  1.2D-01, -4.4D-01, -8.1D-01, r^2= 3.5D-02
   Bfn.  Coefficient  Atom+Function         Bfn.  Coefficient  Atom+Function  
  ----- ------------  ---------------      ----- ------------  ---------------
    37      0.998704   3 Ni py               40     -0.387289   3 Ni py        
   172     -0.311861  10 C  py              142      0.296875   8 C  py        
    38      0.291676   3 Ni pz               74     -0.277869   4 C  s         
   709     -0.256316  77 C  py              686      0.250398  76 C  s         
     6     -0.243487   1 C  s                36      0.231038   3 Ni px        

 Vector  864  Occ=0.000000D+00  E= 1.172563D+02
              MO Center=  1.2D-01, -4.4D-01, -8.1D-01, r^2= 3.4D-02
   Bfn.  Coefficient  Atom+Function         Bfn.  Coefficient  Atom+Function  
  ----- ------------  ---------------      ----- ------------  ---------------
    36      0.941816   3 Ni px               38     -0.494148   3 Ni pz        
    35     -0.484697   3 Ni s                39     -0.367323   3 Ni px        
   686      0.249440  76 C  s                81      0.225549   4 C  px        
   709     -0.225420  77 C  py               82     -0.223861   4 C  py        
   134     -0.218299   8 C  s               200      0.213973  14 C  s         

 Vector  865  Occ=0.000000D+00  E= 1.186736D+02
              MO Center=  1.2D+00,  1.6D+00, -2.1D+00, r^2= 5.9D-02
   Bfn.  Coefficient  Atom+Function         Bfn.  Coefficient  Atom+Function  
  ----- ------------  ---------------      ----- ------------  ---------------
    17      2.979075   2 O  s                18     -2.299978   2 O  s         
    16     -1.757205   2 O  s                19      1.514129   2 O  s         
    20     -1.251065   2 O  s                21      1.036512   2 O  s         
     6     -0.627448   1 C  s                34     -0.512810   3 Ni s         
    14     -0.504872   1 C  py               15      0.363467   1 C  pz        

 Vector  866  Occ=0.000000D+00  E= 6.702790D+02
              MO Center=  1.2D-01, -4.4D-01, -8.1D-01, r^2= 2.5D-02
   Bfn.  Coefficient  Atom+Function         Bfn.  Coefficient  Atom+Function  
  ----- ------------  ---------------      ----- ------------  ---------------
    32     28.684426   3 Ni s                33    -15.125598   3 Ni s         
    51     -7.282312   3 Ni dxx              54     -7.282013   3 Ni dyy       
    56     -7.282948   3 Ni dzz              31     -4.261415   3 Ni s         
    57      3.299972   3 Ni dxx              60      3.299008   3 Ni dyy       
    62      3.302229   3 Ni dzz              34      0.887175   3 Ni s         


 center of mass
 --------------
 x =   0.05688359 y =  -0.01854649 z =  -0.03599106

 moments of inertia (a.u.)
 ------------------
       25184.812172919417          -0.000000000003           0.000000000000
          -0.000000000003       20820.301533341441          -0.000000000000
           0.000000000000          -0.000000000000       29455.229500902140

     Multipole analysis of the density
     ---------------------------------

     L   x y z        total         alpha         beta         nuclear
     -   - - -        -----         -----         ----         -------
     0   0 0 0      0.000000   -172.000000   -172.000000    344.000000

     1   1 0 0     -1.786907      0.217195      0.217195     -2.221298
     1   0 1 0      0.801743     -3.766500     -3.766500      8.334744
     1   0 0 1      1.924301     -6.683350     -6.683350     15.291001

     2   2 0 0   -206.313899  -3603.142659  -3603.142659   6999.971420
     2   1 1 0      5.118205      1.979956      1.979956      1.158293
     2   1 0 1      3.389351    -47.237297    -47.237297     97.863945
     2   0 2 0   -211.805180  -4759.955157  -4759.955157   9308.105133
     2   0 1 1     -2.443736      3.118970      3.118970     -8.681675
     2   0 0 2   -211.436090  -2502.703527  -2502.703527   4793.970965


 Task  times  cpu:     1835.8s     wall:     1835.8s


                                NWChem Input Module
                                -------------------


 Summary of allocated global arrays
-----------------------------------
  No active global arrays


MA_summarize_allocated_blocks: starting scan ...
heap block 'gridpts', handle 88, address 0x60ae87235620:
	type of elements:		double precision
	number of elements:		203677164
	address of client space:	0x60ae87235680
	index for client space:		79725483
	total number of bytes:		1629417416
MA_summarize_allocated_blocks: scan completed: 1 heap block, 0 stack blocks
MA usage statistics:

	allocation statistics:
					      heap	     stack
					      ----	     -----
	current number of blocks	         1	         0
	maximum number of blocks	        37	        58
	current total bytes		1629417416	         0
	maximum total bytes		1649038120	  58564712
	maximum total K-bytes		   1649039	     58565
	maximum total M-bytes		      1650	        59


                                     CITATION
                                     --------
                Please cite the following reference when publishing
                           results obtained with NWChem:

          E. Apra, E. J. Bylaska, W. A. de Jong, N. Govind, K. Kowalski,
       T. P. Straatsma, M. Valiev, H. J. J. van Dam, Y. Alexeev, J. Anchell,
       V. Anisimov, F. W. Aquino, R. Atta-Fynn, J. Autschbach, N. P. Bauman,
     J. C. Becca, D. E. Bernholdt, K. Bhaskaran-Nair, S. Bogatko, P. Borowski,
         J. Boschen, J. Brabec, A. Bruner, E. Cauet, Y. Chen, G. N. Chuev,
      C. J. Cramer, J. Daily, M. J. O. Deegan, T. H. Dunning Jr., M. Dupuis,
   K. G. Dyall, G. I. Fann, S. A. Fischer, A. Fonari, H. Fruchtl, L. Gagliardi,
      J. Garza, N. Gawande, S. Ghosh, K. Glaesemann, A. W. Gotz, J. Hammond,
       V. Helms, E. D. Hermes, K. Hirao, S. Hirata, M. Jacquelin, L. Jensen,
   B. G. Johnson, H. Jonsson, R. A. Kendall, M. Klemm, R. Kobayashi, V. Konkov,
      S. Krishnamoorthy, M. Krishnan, Z. Lin, R. D. Lins, R. J. Littlefield,
      A. J. Logsdail, K. Lopata, W. Ma, A. V. Marenich, J. Martin del Campo,
   D. Mejia-Rodriguez, J. E. Moore, J. M. Mullin, T. Nakajima, D. R. Nascimento,
    J. A. Nichols, P. J. Nichols, J. Nieplocha, A. Otero-de-la-Roza, B. Palmer,
    A. Panyala, T. Pirojsirikul, B. Peng, R. Peverati, J. Pittner, L. Pollack,
   R. M. Richard, P. Sadayappan, G. C. Schatz, W. A. Shelton, D. W. Silverstein,
   D. M. A. Smith, T. A. Soares, D. Song, M. Swart, H. L. Taylor, G. S. Thomas,
            V. Tipparaju, D. G. Truhlar, K. Tsemekhman, T. Van Voorhis,
      A. Vazquez-Mayagoitia, P. Verma, O. Villa, A. Vishnu, K. D. Vogiatzis,
        D. Wang, J. H. Weare, M. J. Williamson, T. L. Windus, K. Wolinski,
        A. T. Wong, Q. Wu, C. Yang, Q. Yu, M. Zacharias, Z. Zhang, Y. Zhao,
                                and R. J. Harrison
                        "NWChem: Past, present, and future
                         J. Chem. Phys. 152, 184102 (2020)
                               doi:10.1063/5.0004997

                                      AUTHORS
                                      -------
  E. Apra, E. J. Bylaska, N. Govind, K. Kowalski, M. Valiev, D. Mejia-Rodriguez,
       A. Kunitsa, N. P. Bauman, A. Panyala, W. A. de Jong, T. P. Straatsma,
   H. J. J. van Dam, D. Wang, T. L. Windus, J. Hammond, J. Autschbach, A. Woods,
    K. Bhaskaran-Nair, J. Brabec, K. Lopata, S. A. Fischer, S. Krishnamoorthy,
     M. Jacquelin, W. Ma, M. Klemm, O. Villa, Y. Chen, V. Anisimov, F. Aquino,
     S. Hirata, M. T. Hackler, E. Hermes, L. Jensen, J. E. Moore, J. C. Becca,
      V. Konjkov, T. Risthaus, M. Malagoli, A. Marenich, A. Otero-de-la-Roza,
        J. Mullin, P. Nichols, R. Peverati, J. Pittner, Y. Zhao, P.-D. Fan,
        A. Fonari, M. J. Williamson, R. J. Harrison, J. R. Rehr, M. Dupuis,
     D. Silverstein, D. M. A. Smith, J. Nieplocha, V. Tipparaju, M. Krishnan,
     B. E. Van Kuiken, A. Vazquez-Mayagoitia, M. Swart, Q. Wu, T. Van Voorhis,
     A. A. Auer, M. Nooijen, L. D. Crosby, E. Brown, G. Cisneros, G. I. Fann,
   H. Fruchtl, J. Garza, K. Hirao, R. A. Kendall, J. A. Nichols, K. Tsemekhman,
    K. Wolinski, J. Anchell, D. E. Bernholdt, P. Borowski, T. Clark, D. Clerc,
   H. Dachsel, M. J. O. Deegan, K. Dyall, D. Elwood, E. Glendening, M. Gutowski,
   A. C. Hess, J. Jaffe, B. G. Johnson, J. Ju, R. Kobayashi, R. Kutteh, Z. Lin,
   R. Littlefield, X. Long, B. Meng, T. Nakajima, S. Niu, L. Pollack, M. Rosing,
   K. Glaesemann, G. Sandrone, M. Stave, H. Taylor, G. Thomas, J. H. van Lenthe,
                               A. T. Wong, Z. Zhang.

 Total times  cpu:     1836.3s     wall:     1836.3s
