 argument  1 = nwchem.in
  NWChem w/ OpenMP: maximum threads =    1
                                         
                                         


             Northwest Computational Chemistry Package (NWChem) 7.2.3
             --------------------------------------------------------


                    Environmental Molecular Sciences Laboratory
                       Pacific Northwest National Laboratory
                                Richland, WA 99352

                              Copyright (c) 1994-2022
                       Pacific Northwest National Laboratory
                            Battelle Memorial Institute

             NWChem is an open-source computational chemistry package
                        distributed under the terms of the
                      Educational Community License (ECL) 2.0
             A copy of the license is included with this distribution
                              in the LICENSE.TXT file

                                  ACKNOWLEDGMENT
                                  --------------

            This software and its documentation were developed at the
            EMSL at Pacific Northwest National Laboratory, a multiprogram
            national laboratory, operated for the U.S. Department of Energy
            by Battelle under Contract Number DE-AC05-76RL01830. Support
            for this work was provided by the Department of Energy Office
            of Biological and Environmental Research, Office of Basic
            Energy Sciences, and the Office of Advanced Scientific Computing.


           Job information
           ---------------

    hostname        = d51203657bee
    program         = nwchem
    date            = Wed Jul  2 17:47:41 2025

    compiled        = Fri_May_02_22:05:35_2025
    source          = /opt/nwchem
    nwchem branch   = 7.2.3
    nwchem revision = N/A
    ga revision     = 5.9.1
    use scalapack   = T
    input           = nwchem.in
    prefix          = ni_singlepoint.
    data base       = ./ni_singlepoint.db
    status          = startup
    nproc           =        5
    time left       =     -1s



           Memory information
           ------------------

    heap     =    509724440 doubles =     3888.9 Mbytes
    stack    =    509724441 doubles =     3888.9 Mbytes
    global   =    291271111 doubles =     2222.2 Mbytes (distinct from heap & stack)
    total    =   1310719992 doubles =    10000.0 Mbytes
    verify   = yes
    hardfail = no 


           Directory information
           ---------------------

  0 permanent = .
  0 scratch   = .




                                NWChem Input Module
                                -------------------


                          Ni complex single-point energy
                          ------------------------------

 Scaling coordinates for geometry "geometry" by  1.889725989
 (inverse scale =  0.529177249)

 C1  symmetry detected

          ------
          auto-z
          ------
  no constraints, skipping    0.0000000000000000     
  no constraints, skipping    0.0000000000000000     


                             Geometry "geometry" -> ""
                             -------------------------

 Output coordinates in angstroms (scale by  1.889725989 to convert to a.u.)

  No.       Tag          Charge          X              Y              Z
 ---- ---------------- ---------- -------------- -------------- --------------
    1 C                    6.0000     1.81427220     0.44168539    -1.52136131
    2 O                    8.0000     1.53832817     1.22357070    -2.44149831
    3 Ni                  28.0000     0.17723257    -0.35027871    -0.63080612
    4 C                    6.0000    -1.31318300     0.28150872     0.29196039
    5 N                    7.0000    -2.23459345    -0.56933385     0.79584803
    6 N                    7.0000    -1.77537999     1.52234799     0.51548782
    7 C                    6.0000    -3.33918902     0.09066655     1.48846762
    8 C                    6.0000    -2.03185811    -1.98010837     0.80345385
    9 C                    6.0000    -3.12554807     1.55210628     1.08195210
   10 C                    6.0000    -1.11274991     2.71520702     0.09359336
   11 H                    1.0000    -4.30140566    -0.30432276     1.15884163
   12 H                    1.0000    -3.26210851    -0.05787305     2.57063136
   13 C                    6.0000    -2.54115192    -2.74021033    -0.25451976
   14 C                    6.0000    -1.30911574    -2.56327202     1.84991403
   15 H                    1.0000    -3.84426964     1.87913022     0.32476329
   16 H                    1.0000    -3.17910896     2.24294598     1.92422120
   17 C                    6.0000    -0.37867128     3.43483894     1.04013107
   18 C                    6.0000    -1.22929942     3.13805954    -1.23445772
   19 C                    6.0000    -2.27445774    -4.10521408    -0.27024452
   20 C                    6.0000    -3.36371546    -2.11359426    -1.36241891
   21 C                    6.0000    -1.07285973    -3.93314416     1.80055862
   22 C                    6.0000    -0.79773247    -1.74750205     3.02076973
   23 C                    6.0000     0.27922766     4.58611703     0.62238688
   24 C                    6.0000    -0.28400510     2.99259071     2.48712482
   25 C                    6.0000    -0.55379475     4.29337577    -1.60959995
   26 C                    6.0000    -2.10907089     2.41091569    -2.23263219
   27 C                    6.0000    -1.54047791    -4.69749653     0.74385008
   28 H                    1.0000    -2.64257174    -4.71227527    -1.08864658
   29 C                    6.0000    -4.77482284    -2.70454360    -1.39456487
   30 C                    6.0000    -2.67245172    -2.25214753    -2.71866174
   31 H                    1.0000    -3.44862031    -1.04652204    -1.14904923
   32 H                    1.0000    -0.50977855    -4.40735235     2.59574505
   33 C                    6.0000     0.72077728    -1.84867303     3.15920489
   34 C                    6.0000    -1.50150106    -2.16634695     4.31405730
   35 H                    1.0000    -1.03084813    -0.69861763     2.82854412
   36 C                    6.0000     0.19905817     5.00848902    -0.69324929
   37 H                    1.0000     0.86794086     5.15352832     1.33341530
   38 C                    6.0000    -0.85792440     4.05222436     3.43009889
   39 C                    6.0000     1.15543146     2.64149225     2.85788590
   40 H                    1.0000    -0.87852792     2.08335772     2.59992177
   41 H                    1.0000    -0.61276775     4.63606090    -2.63483528
   42 C                    6.0000    -1.40992575     2.17194938    -3.57042896
   43 C                    6.0000    -3.41425848     3.18693500    -2.44100867
   44 H                    1.0000    -2.35191907     1.43216709    -1.81292818
   45 H                    1.0000    -1.33720006    -5.76070295     0.71358963
   46 H                    1.0000    -5.27072325    -2.59930695    -0.42774940
   47 H                    1.0000    -4.75071608    -3.76812599    -1.64052699
   48 H                    1.0000    -5.38226393    -2.20141031    -2.14899542
   49 H                    1.0000    -1.68623928    -1.78552813    -2.69407454
   50 H                    1.0000    -3.26338908    -1.77009836    -3.50013155
   51 H                    1.0000    -2.54856982    -3.30241017    -2.99306369
   52 H                    1.0000     1.21044007    -1.50795401     2.24613242
   53 H                    1.0000     1.03543040    -2.87611036     3.35678571
   54 H                    1.0000     1.06901739    -1.22751382     3.98701959
   55 H                    1.0000    -2.58645848    -2.08798315     4.22000334
   56 H                    1.0000    -1.18170832    -1.53782948     5.14713896
   57 H                    1.0000    -1.26677573    -3.20273216     4.56649749
   58 H                    1.0000     0.72359388     5.90262731    -1.00656866
   59 H                    1.0000    -1.89180689     4.29565933     3.17686158
   60 H                    1.0000    -0.27942783     4.97676441     3.37865098
   61 H                    1.0000    -0.83014845     3.69983668     4.46316933
   62 H                    1.0000     1.55146549     1.87521372     2.19133116
   63 H                    1.0000     1.20941525     2.27300456     3.88524345
   64 H                    1.0000     1.80472298     3.51643146     2.78126673
   65 H                    1.0000    -0.44251312     1.69317578    -3.42333114
   66 H                    1.0000    -1.24688959     3.11085213    -4.10497788
   67 H                    1.0000    -2.03548857     1.54241947    -4.20787755
   68 H                    1.0000    -3.93953174     3.36391502    -1.50021168
   69 H                    1.0000    -4.08234242     2.64344714    -3.11249973
   70 H                    1.0000    -3.20707807     4.16182588    -2.88864285
   71 N                    7.0000     1.60215601    -0.98848013    -1.75141668
   72 C                    6.0000     4.41209371     2.01352638     1.53169105
   73 C                    6.0000     3.98006688     2.77805125     0.45731747
   74 H                    1.0000     4.28980463     0.09924370     2.49482528
   75 C                    6.0000     3.97452918     0.70216634     1.65210171
   76 C                    6.0000     3.13913284     2.22942345    -0.49681035
   77 C                    6.0000     2.71061164     0.90414122    -0.39824871
   78 C                    6.0000     3.12512144     0.15229163     0.70316240
   79 H                    1.0000     2.79743475     2.80962774    -1.34284578
   80 H                    1.0000     2.79385629    -0.86598459     0.83524477
   81 H                    1.0000     5.07723570     2.43765059     2.27328271
   82 H                    1.0000     4.30390297     3.80660529     0.35566499
   83 C                    6.0000     2.50176175    -2.00534996    -1.26440428
   84 C                    6.0000     3.82197882    -2.01823907    -1.69075600
   85 C                    6.0000     2.02288411    -3.00211578    -0.42716738
   86 C                    6.0000     4.67389058    -3.02351178    -1.25880807
   87 H                    1.0000     4.17626057    -1.23356163    -2.34860624
   88 C                    6.0000     2.88031279    -4.00327897     0.00716504
   89 H                    1.0000     0.98557598    -2.97109670    -0.10805918
   90 C                    6.0000     4.20586264    -4.01488060    -0.40650633
   91 H                    1.0000     5.70459887    -3.03318989    -1.58877775
   92 H                    1.0000     2.51076524    -4.77423928     0.67172607
   93 H                    1.0000     4.87314339    -4.79733380    -0.06903828
   94 C                    6.0000     1.17153409    -1.30498689    -3.12808879
   95 H                    1.0000     2.01762576    -1.22419094    -3.81511580
   96 H                    1.0000     0.78893785    -2.32450210    -3.13717784
   97 H                    1.0000     0.40091855    -0.60809810    -3.43911935

      Atomic Mass 
      ----------- 

      C                 12.000000
      O                 15.994910
      Ni                57.935300
      N                 14.003070
      H                  1.007825


 Effective nuclear repulsion energy (a.u.)    7255.3060376478

            Nuclear Dipole moment (a.u.) 
            ----------------------------
        X                 Y               Z
 ---------------- ---------------- ----------------
    -0.0000000000    -0.0000000000    -0.0000000000



                                Z-matrix (autoz)
                                -------- 

 Units are Angstrom for bonds and degrees for angles

      Type          Name      I     J     K     L     M      Value
      ----------- --------  ----- ----- ----- ----- ----- ----------
    1 Stretch                  1     2                       1.23860
    2 Stretch                  1     3                       2.02489
    3 Stretch                  1    71                       1.46400
    4 Stretch                  1    77                       1.50953
    5 Stretch                  3     4                       1.86333
    6 Stretch                  3    71                       1.92184
    7 Stretch                  4     5                       1.35160
    8 Stretch                  4     6                       1.34286
    9 Stretch                  5     7                       1.46132
   10 Stretch                  5     8                       1.42529
   11 Stretch                  6     9                       1.46449
   12 Stretch                  6    10                       1.42828
   13 Stretch                  7     9                       1.53190
   14 Stretch                  7    11                       1.09111
   15 Stretch                  7    12                       1.09503
   16 Stretch                  8    13                       1.39873
   17 Stretch                  8    14                       1.39911
   18 Stretch                  9    15                       1.09400
   19 Stretch                  9    16                       1.09066
   20 Stretch                 10    17                       1.39738
   21 Stretch                 10    18                       1.39861
   22 Stretch                 13    19                       1.39090
   23 Stretch                 13    20                       1.51549
   24 Stretch                 14    21                       1.39097
   25 Stretch                 14    22                       1.51588
   26 Stretch                 17    23                       1.39025
   27 Stretch                 17    24                       1.51603
   28 Stretch                 18    25                       1.38989
   29 Stretch                 18    26                       1.51627
   30 Stretch                 19    27                       1.38489
   31 Stretch                 19    28                       1.08343
   32 Stretch                 20    29                       1.53019
   33 Stretch                 20    30                       1.52854
   34 Stretch                 20    31                       1.09150
   35 Stretch                 21    27                       1.38547
   36 Stretch                 21    32                       1.08363
   37 Stretch                 22    33                       1.52816
   38 Stretch                 22    34                       1.53079
   39 Stretch                 22    35                       1.09154
   40 Stretch                 23    36                       1.38410
   41 Stretch                 23    37                       1.08356
   42 Stretch                 24    38                       1.53017
   43 Stretch                 24    39                       1.52732
   44 Stretch                 24    40                       1.09219
   45 Stretch                 25    36                       1.38487
   46 Stretch                 25    41                       1.08260
   47 Stretch                 26    42                       1.52827
   48 Stretch                 26    43                       1.53269
   49 Stretch                 26    44                       1.09228
   50 Stretch                 27    45                       1.08289
   51 Stretch                 29    46                       1.09166
   52 Stretch                 29    47                       1.09192
   53 Stretch                 29    48                       1.09146
   54 Stretch                 30    49                       1.09131
   55 Stretch                 30    50                       1.09191
   56 Stretch                 30    51                       1.09256
   57 Stretch                 33    52                       1.09067
   58 Stretch                 33    53                       1.09255
   59 Stretch                 33    54                       1.09196
   60 Stretch                 34    55                       1.09184
   61 Stretch                 34    56                       1.09148
   62 Stretch                 34    57                       1.09221
   63 Stretch                 36    58                       1.08295
   64 Stretch                 38    59                       1.09193
   65 Stretch                 38    60                       1.09182
   66 Stretch                 38    61                       1.09187
   67 Stretch                 39    62                       1.09010
   68 Stretch                 39    63                       1.09278
   69 Stretch                 39    64                       1.09223
   70 Stretch                 42    65                       1.08938
   71 Stretch                 42    66                       1.09264
   72 Stretch                 42    67                       1.09269
   73 Stretch                 43    68                       1.09194
   74 Stretch                 43    69                       1.09207
   75 Stretch                 43    70                       1.09257
   76 Stretch                 71    83                       1.44239
   77 Stretch                 71    94                       1.47677
   78 Stretch                 72    73                       1.38760
   79 Stretch                 72    75                       1.38767
   80 Stretch                 72    81                       1.08271
   81 Stretch                 73    76                       1.38511
   82 Stretch                 73    82                       1.08311
   83 Stretch                 74    75                       1.08310
   84 Stretch                 75    78                       1.38721
   85 Stretch                 76    77                       1.39632
   86 Stretch                 76    79                       1.08128
   87 Stretch                 77    78                       1.39650
   88 Stretch                 78    80                       1.07892
   89 Stretch                 83    84                       1.38741
   90 Stretch                 83    85                       1.38702
   91 Stretch                 84    86                       1.38669
   92 Stretch                 84    87                       1.08351
   93 Stretch                 85    88                       1.38786
   94 Stretch                 85    89                       1.08573
   95 Stretch                 86    90                       1.38863
   96 Stretch                 86    91                       1.08228
   97 Stretch                 88    90                       1.38865
   98 Stretch                 88    92                       1.08286
   99 Stretch                 90    93                       1.08230
  100 Stretch                 94    95                       1.09289
  101 Stretch                 94    96                       1.08898
  102 Stretch                 94    97                       1.08455
  103 Bend                     1     3     4               137.04150
  104 Bend                     1     3    71                43.44915
  105 Bend                     1    71     3                72.02474
  106 Bend                     1    71    83               123.04332
  107 Bend                     1    71    94               113.46015
  108 Bend                     1    77    76               114.86510
  109 Bend                     1    77    78               126.73492
  110 Bend                     2     1     3               113.17274
  111 Bend                     2     1    71               117.88235
  112 Bend                     2     1    77               119.44655
  113 Bend                     3     1    71                64.52612
  114 Bend                     3     1    77               105.82216
  115 Bend                     3     4     5               121.09532
  116 Bend                     3     4     6               132.14760
  117 Bend                     3    71    83               119.97759
  118 Bend                     3    71    94               113.48704
  119 Bend                     4     3    71               173.93799
  120 Bend                     4     5     7               114.05959
  121 Bend                     4     5     8               121.87831
  122 Bend                     4     6     9               113.60835
  123 Bend                     4     6    10               124.25457
  124 Bend                     5     4     6               106.55799
  125 Bend                     5     7     9               101.51830
  126 Bend                     5     7    11               111.09456
  127 Bend                     5     7    12               110.72772
  128 Bend                     5     8    13               118.82014
  129 Bend                     5     8    14               119.34288
  130 Bend                     6     9     7               102.22987
  131 Bend                     6     9    15               110.12328
  132 Bend                     6     9    16               110.90714
  133 Bend                     6    10    17               118.27693
  134 Bend                     6    10    18               119.62540
  135 Bend                     7     5     8               123.50693
  136 Bend                     7     9    15               112.16176
  137 Bend                     7     9    16               113.11017
  138 Bend                     8    13    19               118.16684
  139 Bend                     8    13    20               121.72832
  140 Bend                     8    14    21               118.14390
  141 Bend                     8    14    22               121.84802
  142 Bend                     9     6    10               121.66860
  143 Bend                     9     7    11               112.84098
  144 Bend                     9     7    12               112.44795
  145 Bend                    10    17    23               118.13341
  146 Bend                    10    17    24               121.94433
  147 Bend                    10    18    25               117.84638
  148 Bend                    10    18    26               121.90136
  149 Bend                    11     7    12               108.15095
  150 Bend                    13     8    14               121.82446
  151 Bend                    13    19    27               120.86758
  152 Bend                    13    19    28               119.55608
  153 Bend                    13    20    29               110.86755
  154 Bend                    13    20    30               111.45105
  155 Bend                    13    20    31               107.66995
  156 Bend                    14    21    27               120.86775
  157 Bend                    14    21    32               119.55064
  158 Bend                    14    22    33               111.68867
  159 Bend                    14    22    34               110.50059
  160 Bend                    14    22    35               108.00206
  161 Bend                    15     9    16               108.23368
  162 Bend                    17    10    18               122.09129
  163 Bend                    17    23    36               120.72492
  164 Bend                    17    23    37               119.57610
  165 Bend                    17    24    38               111.26994
  166 Bend                    17    24    39               110.95338
  167 Bend                    17    24    40               107.90447
  168 Bend                    18    25    36               120.98680
  169 Bend                    18    25    41               119.48847
  170 Bend                    18    26    42               112.69406
  171 Bend                    18    26    43               109.92491
  172 Bend                    18    26    44               107.80409
  173 Bend                    19    13    20               120.10483
  174 Bend                    19    27    21               120.09489
  175 Bend                    19    27    45               119.92921
  176 Bend                    20    29    46               111.28924
  177 Bend                    20    29    47               111.13364
  178 Bend                    20    29    48               110.47044
  179 Bend                    20    30    49               110.48354
  180 Bend                    20    30    50               110.50264
  181 Bend                    20    30    51               111.17737
  182 Bend                    21    14    22               120.00618
  183 Bend                    21    27    45               119.97482
  184 Bend                    22    33    52               110.46289
  185 Bend                    22    33    53               111.39654
  186 Bend                    22    33    54               110.35972
  187 Bend                    22    34    55               111.37239
  188 Bend                    22    34    56               110.64533
  189 Bend                    22    34    57               110.86061
  190 Bend                    23    17    24               119.92214
  191 Bend                    23    36    25               120.18992
  192 Bend                    23    36    58               119.92785
  193 Bend                    24    38    59               111.50591
  194 Bend                    24    38    60               111.01595
  195 Bend                    24    38    61               110.48934
  196 Bend                    24    39    62               110.82733
  197 Bend                    24    39    63               110.62768
  198 Bend                    24    39    64               111.04384
  199 Bend                    25    18    26               120.19439
  200 Bend                    25    36    58               119.88189
  201 Bend                    26    42    65               110.90237
  202 Bend                    26    42    66               111.23237
  203 Bend                    26    42    67               109.80676
  204 Bend                    26    43    68               111.99764
  205 Bend                    26    43    69               110.64486
  206 Bend                    26    43    70               110.24280
  207 Bend                    27    19    28               119.57592
  208 Bend                    27    21    32               119.58026
  209 Bend                    29    20    30               111.30901
  210 Bend                    29    20    31               108.05457
  211 Bend                    30    20    31               107.29197
  212 Bend                    33    22    34               111.23477
  213 Bend                    33    22    35               106.96507
  214 Bend                    34    22    35               108.27146
  215 Bend                    36    23    37               119.69685
  216 Bend                    36    25    41               119.52385
  217 Bend                    38    24    39               111.28947
  218 Bend                    38    24    40               107.97984
  219 Bend                    39    24    40               107.25205
  220 Bend                    42    26    43               110.47073
  221 Bend                    42    26    44               107.33485
  222 Bend                    43    26    44               108.45718
  223 Bend                    46    29    47               107.66335
  224 Bend                    46    29    48               108.35532
  225 Bend                    47    29    48               107.79401
  226 Bend                    49    30    50               108.44758
  227 Bend                    49    30    51               108.31343
  228 Bend                    50    30    51               107.81807
  229 Bend                    52    33    53               108.41354
  230 Bend                    52    33    54               108.28669
  231 Bend                    53    33    54               107.81834
  232 Bend                    55    34    56               108.39478
  233 Bend                    55    34    57               107.55180
  234 Bend                    56    34    57               107.88046
  235 Bend                    59    38    60               107.57584
  236 Bend                    59    38    61               108.38897
  237 Bend                    60    38    61               107.72171
  238 Bend                    62    39    63               108.65533
  239 Bend                    62    39    64               107.71213
  240 Bend                    63    39    64               107.86058
  241 Bend                    65    42    66               108.13198
  242 Bend                    65    42    67               109.50984
  243 Bend                    66    42    67               107.16271
  244 Bend                    68    43    69               108.43005
  245 Bend                    68    43    70               107.43325
  246 Bend                    69    43    70               107.94775
  247 Bend                    71     1    77               120.14745
  248 Bend                    71    83    84               119.75387
  249 Bend                    71    83    85               119.67676
  250 Bend                    71    94    95               110.14713
  251 Bend                    71    94    96               108.11241
  252 Bend                    71    94    97               109.68335
  253 Bend                    72    73    76               120.27477
  254 Bend                    72    73    82               120.18517
  255 Bend                    72    75    74               120.11797
  256 Bend                    72    75    78               120.55144
  257 Bend                    73    72    75               119.31964
  258 Bend                    73    72    81               120.38264
  259 Bend                    73    76    77               120.90643
  260 Bend                    73    76    79               121.21837
  261 Bend                    74    75    78               119.32942
  262 Bend                    75    72    81               120.29579
  263 Bend                    75    78    77               120.52125
  264 Bend                    75    78    80               118.57883
  265 Bend                    76    73    82               119.53877
  266 Bend                    76    77    78               118.39650
  267 Bend                    77    76    79               117.87454
  268 Bend                    77    78    80               120.89991
  269 Bend                    83    71    94               110.21401
  270 Bend                    83    84    86               119.70980
  271 Bend                    83    84    87               119.40545
  272 Bend                    83    85    88               119.60431
  273 Bend                    83    85    89               119.12652
  274 Bend                    84    83    85               120.48753
  275 Bend                    84    86    90               120.11110
  276 Bend                    84    86    91               119.77447
  277 Bend                    85    88    90               120.16782
  278 Bend                    85    88    92               119.65754
  279 Bend                    86    84    87               120.88051
  280 Bend                    86    90    88               119.90776
  281 Bend                    86    90    93               119.98068
  282 Bend                    88    85    89               121.25746
  283 Bend                    88    90    93               120.11107
  284 Bend                    90    86    91               120.11442
  285 Bend                    90    88    92               120.17455
  286 Bend                    95    94    96               109.63108
  287 Bend                    95    94    97               108.80211
  288 Bend                    96    94    97               110.45937
  289 Torsion                  1     3     4     5        -178.45771
  290 Torsion                  1     3     4     6           7.41223
  291 Torsion                  1     3    71    83         118.33585
  292 Torsion                  1     3    71    94        -108.38280
  293 Torsion                  1    71     3     4          97.85226
  294 Torsion                  1    71    83    84         -61.15358
  295 Torsion                  1    71    83    85         122.11947
  296 Torsion                  1    71    94    95          75.01166
  297 Torsion                  1    71    94    96        -165.21833
  298 Torsion                  1    71    94    97         -44.71442
  299 Torsion                  1    77    76    73        -179.16374
  300 Torsion                  1    77    76    79           0.54297
  301 Torsion                  1    77    78    75         178.81859
  302 Torsion                  1    77    78    80          -1.15604
  303 Torsion                  2     1     3     4         -60.09658
  304 Torsion                  2     1     3    71         111.07284
  305 Torsion                  2     1    71     3        -103.94947
  306 Torsion                  2     1    71    83         141.49257
  307 Torsion                  2     1    71    94           4.46843
  308 Torsion                  2     1    77    76           1.16684
  309 Torsion                  2     1    77    78        -179.52821
  310 Torsion                  3     1    71    83        -114.55796
  311 Torsion                  3     1    71    94         108.41790
  312 Torsion                  3     1    77    76        -127.85827
  313 Torsion                  3     1    77    78          51.44668
  314 Torsion                  3     4     5     7        -179.94258
  315 Torsion                  3     4     5     8           8.32231
  316 Torsion                  3     4     6     9         169.11026
  317 Torsion                  3     4     6    10          -3.12656
  318 Torsion                  3    71     1    77          94.16100
  319 Torsion                  3    71    83    84        -148.29954
  320 Torsion                  3    71    83    85          34.97351
  321 Torsion                  3    71    94    95         154.74559
  322 Torsion                  3    71    94    96         -85.48440
  323 Torsion                  3    71    94    97          35.01951
  324 Torsion                  4     3     1    71        -171.16942
  325 Torsion                  4     3     1    77          72.52192
  326 Torsion                  4     3    71    83        -143.81189
  327 Torsion                  4     3    71    94         -10.53054
  328 Torsion                  4     5     7     9          11.75592
  329 Torsion                  4     5     7    11         131.96910
  330 Torsion                  4     5     7    12        -107.83327
  331 Torsion                  4     5     8    13         -94.14216
  332 Torsion                  4     5     8    14          84.59485
  333 Torsion                  4     6     9     7          12.52672
  334 Torsion                  4     6     9    15        -106.84655
  335 Torsion                  4     6     9    16         133.37202
  336 Torsion                  4     6    10    17        -101.18121
  337 Torsion                  4     6    10    18          79.71766
  338 Torsion                  5     4     3    71          90.13288
  339 Torsion                  5     4     6     9          -5.64766
  340 Torsion                  5     4     6    10        -177.88448
  341 Torsion                  5     7     9     6         -13.36402
  342 Torsion                  5     7     9    15         104.56639
  343 Torsion                  5     7     9    16        -132.67163
  344 Torsion                  5     8    13    19         176.63183
  345 Torsion                  5     8    13    20          -3.40592
  346 Torsion                  5     8    14    21        -177.06583
  347 Torsion                  5     8    14    22           3.43533
  348 Torsion                  6     4     3    71         -83.99718
  349 Torsion                  6     4     5     7          -4.47975
  350 Torsion                  6     4     5     8        -176.21485
  351 Torsion                  6     9     7    11        -132.33673
  352 Torsion                  6     9     7    12         104.99589
  353 Torsion                  6    10    17    23         179.18838
  354 Torsion                  6    10    17    24          -0.68648
  355 Torsion                  6    10    18    25        -179.10367
  356 Torsion                  6    10    18    26           3.65924
  357 Torsion                  7     5     8    13          94.91511
  358 Torsion                  7     5     8    14         -86.34789
  359 Torsion                  7     9     6    10        -175.01117
  360 Torsion                  8     5     7     9        -176.66224
  361 Torsion                  8     5     7    11         -56.44906
  362 Torsion                  8     5     7    12          63.74857
  363 Torsion                  8    13    19    27           0.87746
  364 Torsion                  8    13    19    28        -178.88369
  365 Torsion                  8    13    20    29        -118.08885
  366 Torsion                  8    13    20    30         117.32531
  367 Torsion                  8    13    20    31          -0.08424
  368 Torsion                  8    14    21    27           0.01643
  369 Torsion                  8    14    21    32         179.59235
  370 Torsion                  8    14    22    33        -121.60551
  371 Torsion                  8    14    22    34         114.00294
  372 Torsion                  8    14    22    35          -4.25542
  373 Torsion                  9     6    10    17          87.18083
  374 Torsion                  9     6    10    18         -91.92030
  375 Torsion                 10     6     9    15          65.61556
  376 Torsion                 10     6     9    16         -54.16587
  377 Torsion                 10    17    23    36           0.42188
  378 Torsion                 10    17    23    37        -179.04539
  379 Torsion                 10    17    24    38        -119.14251
  380 Torsion                 10    17    24    39         116.36649
  381 Torsion                 10    17    24    40          -0.85656
  382 Torsion                 10    18    25    36          -0.62445
  383 Torsion                 10    18    25    41         179.03211
  384 Torsion                 10    18    26    42        -133.78131
  385 Torsion                 10    18    26    43         102.52165
  386 Torsion                 10    18    26    44         -15.51936
  387 Torsion                 11     7     9    15         -14.40632
  388 Torsion                 11     7     9    16         108.35566
  389 Torsion                 12     7     9    15        -137.07370
  390 Torsion                 12     7     9    16         -14.31172
  391 Torsion                 13     8    14    21           1.63183
  392 Torsion                 13     8    14    22        -177.86701
  393 Torsion                 13    19    27    21           0.71086
  394 Torsion                 13    19    27    45        -179.66774
  395 Torsion                 13    20    29    46          55.72165
  396 Torsion                 13    20    29    47         -64.26184
  397 Torsion                 13    20    29    48         176.13366
  398 Torsion                 13    20    30    49         -58.29967
  399 Torsion                 13    20    30    50        -178.32124
  400 Torsion                 13    20    30    51          61.99447
  401 Torsion                 14     8    13    19          -2.07242
  402 Torsion                 14     8    13    20         177.88983
  403 Torsion                 14    21    27    19          -1.17136
  404 Torsion                 14    21    27    45         179.20741
  405 Torsion                 14    22    33    52          58.39355
  406 Torsion                 14    22    33    53         -62.15799
  407 Torsion                 14    22    33    54         178.10915
  408 Torsion                 14    22    34    55         -55.76158
  409 Torsion                 14    22    34    56        -176.39673
  410 Torsion                 14    22    34    57          63.95332
  411 Torsion                 17    10    18    25           1.83071
  412 Torsion                 17    10    18    26        -175.40638
  413 Torsion                 17    23    36    25           0.73363
  414 Torsion                 17    23    36    58        -179.48125
  415 Torsion                 17    24    38    59          56.50212
  416 Torsion                 17    24    38    60         -63.43652
  417 Torsion                 17    24    38    61         177.11335
  418 Torsion                 17    24    39    62         -56.40042
  419 Torsion                 17    24    39    63        -176.98956
  420 Torsion                 17    24    39    64          63.27756
  421 Torsion                 18    10    17    23          -1.73391
  422 Torsion                 18    10    17    24         178.39123
  423 Torsion                 18    25    36    23          -0.62884
  424 Torsion                 18    25    36    58         179.58594
  425 Torsion                 18    26    42    65          51.96474
  426 Torsion                 18    26    42    66         -68.41785
  427 Torsion                 18    26    42    67         173.13090
  428 Torsion                 18    26    43    68         -55.52277
  429 Torsion                 18    26    43    69        -176.62551
  430 Torsion                 18    26    43    70          64.03934
  431 Torsion                 19    13    20    29          61.87268
  432 Torsion                 19    13    20    30         -62.71316
  433 Torsion                 19    13    20    31         179.87730
  434 Torsion                 19    27    21    32         179.25284
  435 Torsion                 20    13    19    27        -179.08542
  436 Torsion                 20    13    19    28           1.15343
  437 Torsion                 21    14    22    33          58.90479
  438 Torsion                 21    14    22    34         -65.48676
  439 Torsion                 21    14    22    35         176.25488
  440 Torsion                 21    27    19    28        -179.52803
  441 Torsion                 22    14    21    27         179.52483
  442 Torsion                 22    14    21    32          -0.89925
  443 Torsion                 23    17    24    38          60.98481
  444 Torsion                 23    17    24    39         -63.50619
  445 Torsion                 23    17    24    40         179.27076
  446 Torsion                 23    36    25    41         179.71472
  447 Torsion                 24    17    23    36        -179.70063
  448 Torsion                 24    17    23    37           0.83210
  449 Torsion                 25    18    26    42          49.04520
  450 Torsion                 25    18    26    43         -74.65184
  451 Torsion                 25    18    26    44         167.30715
  452 Torsion                 25    36    23    37        -179.79974
  453 Torsion                 26    18    25    36         176.66179
  454 Torsion                 26    18    25    41          -3.68165
  455 Torsion                 28    19    27    45           0.09336
  456 Torsion                 29    20    30    49         177.36254
  457 Torsion                 29    20    30    50          57.34097
  458 Torsion                 29    20    30    51         -62.34332
  459 Torsion                 30    20    29    46        -179.61197
  460 Torsion                 30    20    29    47          60.40454
  461 Torsion                 30    20    29    48         -59.19997
  462 Torsion                 31    20    29    46         -62.04873
  463 Torsion                 31    20    29    47         177.96778
  464 Torsion                 31    20    29    48          58.36327
  465 Torsion                 31    20    30    49          59.33831
  466 Torsion                 31    20    30    50         -60.68326
  467 Torsion                 31    20    30    51         179.63245
  468 Torsion                 32    21    27    45          -0.36838
  469 Torsion                 33    22    34    55         179.58743
  470 Torsion                 33    22    34    56          58.95228
  471 Torsion                 33    22    34    57         -60.69766
  472 Torsion                 34    22    33    52        -177.62696
  473 Torsion                 34    22    33    53          61.82150
  474 Torsion                 34    22    33    54         -57.91136
  475 Torsion                 35    22    33    52         -59.57970
  476 Torsion                 35    22    33    53         179.86876
  477 Torsion                 35    22    33    54          60.13589
  478 Torsion                 35    22    34    55          62.33204
  479 Torsion                 35    22    34    56         -58.30311
  480 Torsion                 35    22    34    57        -177.95306
  481 Torsion                 37    23    36    58          -0.01462
  482 Torsion                 38    24    39    62         179.11966
  483 Torsion                 38    24    39    63          58.53052
  484 Torsion                 38    24    39    64         -61.20236
  485 Torsion                 39    24    38    59        -179.19652
  486 Torsion                 39    24    38    60          60.86484
  487 Torsion                 39    24    38    61         -58.58530
  488 Torsion                 40    24    38    59         -61.73843
  489 Torsion                 40    24    38    60         178.32293
  490 Torsion                 40    24    38    61          58.87279
  491 Torsion                 40    24    39    62          61.22100
  492 Torsion                 40    24    39    63         -59.36814
  493 Torsion                 40    24    39    64        -179.10102
  494 Torsion                 41    25    36    58          -0.07050
  495 Torsion                 42    26    43    68         179.49276
  496 Torsion                 42    26    43    69          58.39002
  497 Torsion                 42    26    43    70         -60.94512
  498 Torsion                 43    26    42    65         175.35892
  499 Torsion                 43    26    42    66          54.97634
  500 Torsion                 43    26    42    67         -63.47491
  501 Torsion                 44    26    42    65         -66.57201
  502 Torsion                 44    26    42    66         173.04540
  503 Torsion                 44    26    42    67          54.59416
  504 Torsion                 44    26    43    68          62.11330
  505 Torsion                 44    26    43    69         -58.98944
  506 Torsion                 44    26    43    70        -178.32459
  507 Torsion                 71     1    77    76         162.77435
  508 Torsion                 71     1    77    78         -17.92070
  509 Torsion                 71     3     1    77        -116.30867
  510 Torsion                 71    83    84    86        -177.74435
  511 Torsion                 71    83    84    87           2.99803
  512 Torsion                 71    83    85    88         178.01010
  513 Torsion                 71    83    85    89          -3.21847
  514 Torsion                 72    73    76    77           0.02389
  515 Torsion                 72    73    76    79        -179.67296
  516 Torsion                 72    75    78    77           0.84728
  517 Torsion                 72    75    78    80        -179.17751
  518 Torsion                 73    72    75    74        -178.92949
  519 Torsion                 73    72    75    78           0.67532
  520 Torsion                 73    76    77    78           1.46947
  521 Torsion                 74    75    72    81           0.56697
  522 Torsion                 74    75    78    77        -179.54482
  523 Torsion                 74    75    78    80           0.43039
  524 Torsion                 75    72    73    76          -1.10764
  525 Torsion                 75    72    73    82         179.30730
  526 Torsion                 75    78    77    76          -1.89829
  527 Torsion                 76    73    72    81         179.39635
  528 Torsion                 76    77    78    80         178.12708
  529 Torsion                 77     1    71    83         -20.39696
  530 Torsion                 77     1    71    94        -157.42110
  531 Torsion                 77    76    73    82         179.61162
  532 Torsion                 78    75    72    81        -179.82822
  533 Torsion                 78    77    76    79        -178.82382
  534 Torsion                 79    76    73    82          -0.08522
  535 Torsion                 81    72    73    82          -0.18871
  536 Torsion                 83    71    94    95         -67.47559
  537 Torsion                 83    71    94    96          52.29442
  538 Torsion                 83    71    94    97         172.79833
  539 Torsion                 83    84    86    90           0.19486
  540 Torsion                 83    84    86    91        -179.84816
  541 Torsion                 83    85    88    90          -0.72409
  542 Torsion                 83    85    88    92         179.16291
  543 Torsion                 84    83    71    94          77.05789
  544 Torsion                 84    83    85    88           1.30759
  545 Torsion                 84    83    85    89        -179.92098
  546 Torsion                 84    86    90    88           0.38089
  547 Torsion                 84    86    90    93        -179.87314
  548 Torsion                 85    83    71    94         -99.66905
  549 Torsion                 85    83    84    86          -1.04437
  550 Torsion                 85    83    84    87         179.69801
  551 Torsion                 85    88    90    86          -0.11480
  552 Torsion                 85    88    90    93        -179.86044
  553 Torsion                 86    90    88    92         179.99879
  554 Torsion                 87    84    86    90         179.44130
  555 Torsion                 87    84    86    91          -0.60172
  556 Torsion                 88    90    86    91        -179.57594
  557 Torsion                 89    85    88    90        -179.46864
  558 Torsion                 89    85    88    92           0.41836
  559 Torsion                 91    86    90    93           0.17003
  560 Torsion                 92    88    90    93           0.25315


            XYZ format geometry
            -------------------
    97
 geometry
 C                     1.81427220     0.44168539    -1.52136131
 O                     1.53832817     1.22357070    -2.44149831
 Ni                    0.17723257    -0.35027871    -0.63080612
 C                    -1.31318300     0.28150872     0.29196039
 N                    -2.23459345    -0.56933385     0.79584803
 N                    -1.77537999     1.52234799     0.51548782
 C                    -3.33918902     0.09066655     1.48846762
 C                    -2.03185811    -1.98010837     0.80345385
 C                    -3.12554807     1.55210628     1.08195210
 C                    -1.11274991     2.71520702     0.09359336
 H                    -4.30140566    -0.30432276     1.15884163
 H                    -3.26210851    -0.05787305     2.57063136
 C                    -2.54115192    -2.74021033    -0.25451976
 C                    -1.30911574    -2.56327202     1.84991403
 H                    -3.84426964     1.87913022     0.32476329
 H                    -3.17910896     2.24294598     1.92422120
 C                    -0.37867128     3.43483894     1.04013107
 C                    -1.22929942     3.13805954    -1.23445772
 C                    -2.27445774    -4.10521408    -0.27024452
 C                    -3.36371546    -2.11359426    -1.36241891
 C                    -1.07285973    -3.93314416     1.80055862
 C                    -0.79773247    -1.74750205     3.02076973
 C                     0.27922766     4.58611703     0.62238688
 C                    -0.28400510     2.99259071     2.48712482
 C                    -0.55379475     4.29337577    -1.60959995
 C                    -2.10907089     2.41091569    -2.23263219
 C                    -1.54047791    -4.69749653     0.74385008
 H                    -2.64257174    -4.71227527    -1.08864658
 C                    -4.77482284    -2.70454360    -1.39456487
 C                    -2.67245172    -2.25214753    -2.71866174
 H                    -3.44862031    -1.04652204    -1.14904923
 H                    -0.50977855    -4.40735235     2.59574505
 C                     0.72077728    -1.84867303     3.15920489
 C                    -1.50150106    -2.16634695     4.31405730
 H                    -1.03084813    -0.69861763     2.82854412
 C                     0.19905817     5.00848902    -0.69324929
 H                     0.86794086     5.15352832     1.33341530
 C                    -0.85792440     4.05222436     3.43009889
 C                     1.15543146     2.64149225     2.85788590
 H                    -0.87852792     2.08335772     2.59992177
 H                    -0.61276775     4.63606090    -2.63483528
 C                    -1.40992575     2.17194938    -3.57042896
 C                    -3.41425848     3.18693500    -2.44100867
 H                    -2.35191907     1.43216709    -1.81292818
 H                    -1.33720006    -5.76070295     0.71358963
 H                    -5.27072325    -2.59930695    -0.42774940
 H                    -4.75071608    -3.76812599    -1.64052699
 H                    -5.38226393    -2.20141031    -2.14899542
 H                    -1.68623928    -1.78552813    -2.69407454
 H                    -3.26338908    -1.77009836    -3.50013155
 H                    -2.54856982    -3.30241017    -2.99306369
 H                     1.21044007    -1.50795401     2.24613242
 H                     1.03543040    -2.87611036     3.35678571
 H                     1.06901739    -1.22751382     3.98701959
 H                    -2.58645848    -2.08798315     4.22000334
 H                    -1.18170832    -1.53782948     5.14713896
 H                    -1.26677573    -3.20273216     4.56649749
 H                     0.72359388     5.90262731    -1.00656866
 H                    -1.89180689     4.29565933     3.17686158
 H                    -0.27942783     4.97676441     3.37865098
 H                    -0.83014845     3.69983668     4.46316933
 H                     1.55146549     1.87521372     2.19133116
 H                     1.20941525     2.27300456     3.88524345
 H                     1.80472298     3.51643146     2.78126673
 H                    -0.44251312     1.69317578    -3.42333114
 H                    -1.24688959     3.11085213    -4.10497788
 H                    -2.03548857     1.54241947    -4.20787755
 H                    -3.93953174     3.36391502    -1.50021168
 H                    -4.08234242     2.64344714    -3.11249973
 H                    -3.20707807     4.16182588    -2.88864285
 N                     1.60215601    -0.98848013    -1.75141668
 C                     4.41209371     2.01352638     1.53169105
 C                     3.98006688     2.77805125     0.45731747
 H                     4.28980463     0.09924370     2.49482528
 C                     3.97452918     0.70216634     1.65210171
 C                     3.13913284     2.22942345    -0.49681035
 C                     2.71061164     0.90414122    -0.39824871
 C                     3.12512144     0.15229163     0.70316240
 H                     2.79743475     2.80962774    -1.34284578
 H                     2.79385629    -0.86598459     0.83524477
 H                     5.07723570     2.43765059     2.27328271
 H                     4.30390297     3.80660529     0.35566499
 C                     2.50176175    -2.00534996    -1.26440428
 C                     3.82197882    -2.01823907    -1.69075600
 C                     2.02288411    -3.00211578    -0.42716738
 C                     4.67389058    -3.02351178    -1.25880807
 H                     4.17626057    -1.23356163    -2.34860624
 C                     2.88031279    -4.00327897     0.00716504
 H                     0.98557598    -2.97109670    -0.10805918
 C                     4.20586264    -4.01488060    -0.40650633
 H                     5.70459887    -3.03318989    -1.58877775
 H                     2.51076524    -4.77423928     0.67172607
 H                     4.87314339    -4.79733380    -0.06903828
 C                     1.17153409    -1.30498689    -3.12808879
 H                     2.01762576    -1.22419094    -3.81511580
 H                     0.78893785    -2.32450210    -3.13717784
 H                     0.40091855    -0.60809810    -3.43911935

 ==============================================================================
                                internuclear distances
 ------------------------------------------------------------------------------
       center one      |      center two      | atomic units |  angstroms
 ------------------------------------------------------------------------------
    2 O                |   1 C                |     2.34062  |     1.23860
    3 Ni               |   1 C                |     3.82649  |     2.02489
    4 C                |   3 Ni               |     3.52118  |     1.86333
    5 N                |   4 C                |     2.55416  |     1.35160
    6 N                |   4 C                |     2.53764  |     1.34286
    7 C                |   5 N                |     2.76149  |     1.46132
    8 C                |   5 N                |     2.69340  |     1.42529
    9 C                |   6 N                |     2.76748  |     1.46449
    9 C                |   7 C                |     2.89486  |     1.53190
   10 C                |   6 N                |     2.69906  |     1.42828
   11 H                |   7 C                |     2.06191  |     1.09111
   12 H                |   7 C                |     2.06930  |     1.09503
   13 C                |   8 C                |     2.64321  |     1.39873
   14 C                |   8 C                |     2.64394  |     1.39911
   15 H                |   9 C                |     2.06736  |     1.09400
   16 H                |   9 C                |     2.06105  |     1.09066
   17 C                |  10 C                |     2.64067  |     1.39738
   18 C                |  10 C                |     2.64299  |     1.39861
   19 C                |  13 C                |     2.62842  |     1.39090
   20 C                |  13 C                |     2.86385  |     1.51549
   21 C                |  14 C                |     2.62856  |     1.39097
   22 C                |  14 C                |     2.86460  |     1.51588
   23 C                |  17 C                |     2.62718  |     1.39025
   24 C                |  17 C                |     2.86487  |     1.51603
   25 C                |  18 C                |     2.62651  |     1.38989
   26 C                |  18 C                |     2.86534  |     1.51627
   27 C                |  19 C                |     2.61706  |     1.38489
   27 C                |  21 C                |     2.61816  |     1.38547
   28 H                |  19 C                |     2.04738  |     1.08343
   29 C                |  20 C                |     2.89164  |     1.53019
   30 C                |  20 C                |     2.88852  |     1.52854
   31 H                |  20 C                |     2.06264  |     1.09150
   32 H                |  21 C                |     2.04776  |     1.08363
   33 C                |  22 C                |     2.88780  |     1.52816
   34 C                |  22 C                |     2.89277  |     1.53079
   35 H                |  22 C                |     2.06271  |     1.09154
   36 C                |  23 C                |     2.61556  |     1.38410
   36 C                |  25 C                |     2.61703  |     1.38487
   37 H                |  23 C                |     2.04763  |     1.08356
   38 C                |  24 C                |     2.89159  |     1.53017
   39 C                |  24 C                |     2.88622  |     1.52732
   40 H                |  24 C                |     2.06395  |     1.09219
   41 H                |  25 C                |     2.04581  |     1.08260
   42 C                |  26 C                |     2.88801  |     1.52827
   43 C                |  26 C                |     2.89637  |     1.53269
   44 H                |  26 C                |     2.06411  |     1.09228
   45 H                |  27 C                |     2.04636  |     1.08289
   46 H                |  29 C                |     2.06294  |     1.09166
   47 H                |  29 C                |     2.06343  |     1.09192
   48 H                |  29 C                |     2.06257  |     1.09146
   49 H                |  30 C                |     2.06227  |     1.09131
   50 H                |  30 C                |     2.06342  |     1.09191
   51 H                |  30 C                |     2.06465  |     1.09256
   52 H                |  33 C                |     2.06107  |     1.09067
   53 H                |  33 C                |     2.06463  |     1.09255
   54 H                |  33 C                |     2.06351  |     1.09196
   55 H                |  34 C                |     2.06328  |     1.09184
   56 H                |  34 C                |     2.06260  |     1.09148
   57 H                |  34 C                |     2.06397  |     1.09221
   58 H                |  36 C                |     2.04649  |     1.08295
   59 H                |  38 C                |     2.06344  |     1.09193
   60 H                |  38 C                |     2.06325  |     1.09182
   61 H                |  38 C                |     2.06334  |     1.09187
   62 H                |  39 C                |     2.05999  |     1.09010
   63 H                |  39 C                |     2.06505  |     1.09278
   64 H                |  39 C                |     2.06402  |     1.09223
   65 H                |  42 C                |     2.05863  |     1.08938
   66 H                |  42 C                |     2.06479  |     1.09264
   67 H                |  42 C                |     2.06489  |     1.09269
   68 H                |  43 C                |     2.06347  |     1.09194
   69 H                |  43 C                |     2.06371  |     1.09207
   70 H                |  43 C                |     2.06466  |     1.09257
   71 N                |   1 C                |     2.76656  |     1.46400
   71 N                |   3 Ni               |     3.63175  |     1.92184
   73 C                |  72 C                |     2.62218  |     1.38760
   75 C                |  72 C                |     2.62232  |     1.38767
   75 C                |  74 H                |     2.04676  |     1.08310
   76 C                |  73 C                |     2.61747  |     1.38511
   77 C                |   1 C                |     2.85259  |     1.50953
   77 C                |  76 C                |     2.63867  |     1.39632
   78 C                |  75 C                |     2.62144  |     1.38721
   78 C                |  77 C                |     2.63900  |     1.39650
   79 H                |  76 C                |     2.04333  |     1.08128
   80 H                |  78 C                |     2.03886  |     1.07892
   81 H                |  72 C                |     2.04602  |     1.08271
   82 H                |  73 C                |     2.04678  |     1.08311
   83 C                |  71 N                |     2.72573  |     1.44239
   84 C                |  83 C                |     2.62183  |     1.38741
   85 C                |  83 C                |     2.62109  |     1.38702
   86 C                |  84 C                |     2.62046  |     1.38669
   87 H                |  84 C                |     2.04754  |     1.08351
   88 C                |  85 C                |     2.62268  |     1.38786
   89 H                |  85 C                |     2.05172  |     1.08573
   90 C                |  86 C                |     2.62412  |     1.38863
   90 C                |  88 C                |     2.62416  |     1.38865
   91 H                |  86 C                |     2.04522  |     1.08228
   92 H                |  88 C                |     2.04631  |     1.08286
   93 H                |  90 C                |     2.04526  |     1.08230
   94 C                |  71 N                |     2.79068  |     1.47677
   95 H                |  94 C                |     2.06526  |     1.09289
   96 H                |  94 C                |     2.05787  |     1.08898
   97 H                |  94 C                |     2.04950  |     1.08455
 ------------------------------------------------------------------------------
                         number of included internuclear distances:        102
 ==============================================================================



 ==============================================================================
                                 internuclear angles
 ------------------------------------------------------------------------------
        center 1       |       center 2       |       center 3       |  degrees
 ------------------------------------------------------------------------------
    2 O                |   1 C                |   3 Ni               |   113.17
    2 O                |   1 C                |  71 N                |   117.88
    2 O                |   1 C                |  77 C                |   119.45
    1 C                |  71 N                |   3 Ni               |    72.02
    3 Ni               |   1 C                |  77 C                |   105.82
   71 N                |   1 C                |  77 C                |   120.15
    1 C                |   3 Ni               |   4 C                |   137.04
    3 Ni               |  71 N                |   1 C                |    72.02
    4 C                |   3 Ni               |  71 N                |   173.94
    3 Ni               |   4 C                |   5 N                |   121.10
    3 Ni               |   4 C                |   6 N                |   132.15
    5 N                |   4 C                |   6 N                |   106.56
    4 C                |   5 N                |   7 C                |   114.06
    4 C                |   5 N                |   8 C                |   121.88
    7 C                |   5 N                |   8 C                |   123.51
    4 C                |   6 N                |   9 C                |   113.61
    4 C                |   6 N                |  10 C                |   124.25
    9 C                |   6 N                |  10 C                |   121.67
    5 N                |   7 C                |   9 C                |   101.52
    5 N                |   7 C                |  11 H                |   111.09
    5 N                |   7 C                |  12 H                |   110.73
    9 C                |   7 C                |  11 H                |   112.84
    9 C                |   7 C                |  12 H                |   112.45
   11 H                |   7 C                |  12 H                |   108.15
    5 N                |   8 C                |  13 C                |   118.82
    5 N                |   8 C                |  14 C                |   119.34
   13 C                |   8 C                |  14 C                |   121.82
    6 N                |   9 C                |   7 C                |   102.23
    6 N                |   9 C                |  15 H                |   110.12
    6 N                |   9 C                |  16 H                |   110.91
    7 C                |   9 C                |  15 H                |   112.16
    7 C                |   9 C                |  16 H                |   113.11
   15 H                |   9 C                |  16 H                |   108.23
    6 N                |  10 C                |  17 C                |   118.28
    6 N                |  10 C                |  18 C                |   119.63
   17 C                |  10 C                |  18 C                |   122.09
    8 C                |  13 C                |  19 C                |   118.17
    8 C                |  13 C                |  20 C                |   121.73
   19 C                |  13 C                |  20 C                |   120.10
    8 C                |  14 C                |  21 C                |   118.14
    8 C                |  14 C                |  22 C                |   121.85
   21 C                |  14 C                |  22 C                |   120.01
   10 C                |  17 C                |  23 C                |   118.13
   10 C                |  17 C                |  24 C                |   121.94
   23 C                |  17 C                |  24 C                |   119.92
   10 C                |  18 C                |  25 C                |   117.85
   10 C                |  18 C                |  26 C                |   121.90
   25 C                |  18 C                |  26 C                |   120.19
   13 C                |  19 C                |  27 C                |   120.87
   13 C                |  19 C                |  28 H                |   119.56
   27 C                |  19 C                |  28 H                |   119.58
   13 C                |  20 C                |  29 C                |   110.87
   13 C                |  20 C                |  30 C                |   111.45
   13 C                |  20 C                |  31 H                |   107.67
   29 C                |  20 C                |  30 C                |   111.31
   29 C                |  20 C                |  31 H                |   108.05
   30 C                |  20 C                |  31 H                |   107.29
   14 C                |  21 C                |  27 C                |   120.87
   14 C                |  21 C                |  32 H                |   119.55
   27 C                |  21 C                |  32 H                |   119.58
   14 C                |  22 C                |  33 C                |   111.69
   14 C                |  22 C                |  34 C                |   110.50
   14 C                |  22 C                |  35 H                |   108.00
   33 C                |  22 C                |  34 C                |   111.23
   33 C                |  22 C                |  35 H                |   106.97
   34 C                |  22 C                |  35 H                |   108.27
   17 C                |  23 C                |  36 C                |   120.72
   17 C                |  23 C                |  37 H                |   119.58
   36 C                |  23 C                |  37 H                |   119.70
   17 C                |  24 C                |  38 C                |   111.27
   17 C                |  24 C                |  39 C                |   110.95
   17 C                |  24 C                |  40 H                |   107.90
   38 C                |  24 C                |  39 C                |   111.29
   38 C                |  24 C                |  40 H                |   107.98
   39 C                |  24 C                |  40 H                |   107.25
   18 C                |  25 C                |  36 C                |   120.99
   18 C                |  25 C                |  41 H                |   119.49
   36 C                |  25 C                |  41 H                |   119.52
   18 C                |  26 C                |  42 C                |   112.69
   18 C                |  26 C                |  43 C                |   109.92
   18 C                |  26 C                |  44 H                |   107.80
   42 C                |  26 C                |  43 C                |   110.47
   42 C                |  26 C                |  44 H                |   107.33
   43 C                |  26 C                |  44 H                |   108.46
   19 C                |  27 C                |  21 C                |   120.09
   19 C                |  27 C                |  45 H                |   119.93
   21 C                |  27 C                |  45 H                |   119.97
   20 C                |  29 C                |  46 H                |   111.29
   20 C                |  29 C                |  47 H                |   111.13
   20 C                |  29 C                |  48 H                |   110.47
   46 H                |  29 C                |  47 H                |   107.66
   46 H                |  29 C                |  48 H                |   108.36
   47 H                |  29 C                |  48 H                |   107.79
   20 C                |  30 C                |  49 H                |   110.48
   20 C                |  30 C                |  50 H                |   110.50
   20 C                |  30 C                |  51 H                |   111.18
   49 H                |  30 C                |  50 H                |   108.45
   49 H                |  30 C                |  51 H                |   108.31
   50 H                |  30 C                |  51 H                |   107.82
   22 C                |  33 C                |  52 H                |   110.46
   22 C                |  33 C                |  53 H                |   111.40
   22 C                |  33 C                |  54 H                |   110.36
   52 H                |  33 C                |  53 H                |   108.41
   52 H                |  33 C                |  54 H                |   108.29
   53 H                |  33 C                |  54 H                |   107.82
   22 C                |  34 C                |  55 H                |   111.37
   22 C                |  34 C                |  56 H                |   110.65
   22 C                |  34 C                |  57 H                |   110.86
   55 H                |  34 C                |  56 H                |   108.39
   55 H                |  34 C                |  57 H                |   107.55
   56 H                |  34 C                |  57 H                |   107.88
   23 C                |  36 C                |  25 C                |   120.19
   23 C                |  36 C                |  58 H                |   119.93
   25 C                |  36 C                |  58 H                |   119.88
   24 C                |  38 C                |  59 H                |   111.51
   24 C                |  38 C                |  60 H                |   111.02
   24 C                |  38 C                |  61 H                |   110.49
   59 H                |  38 C                |  60 H                |   107.58
   59 H                |  38 C                |  61 H                |   108.39
   60 H                |  38 C                |  61 H                |   107.72
   24 C                |  39 C                |  62 H                |   110.83
   24 C                |  39 C                |  63 H                |   110.63
   24 C                |  39 C                |  64 H                |   111.04
   62 H                |  39 C                |  63 H                |   108.66
   62 H                |  39 C                |  64 H                |   107.71
   63 H                |  39 C                |  64 H                |   107.86
   26 C                |  42 C                |  65 H                |   110.90
   26 C                |  42 C                |  66 H                |   111.23
   26 C                |  42 C                |  67 H                |   109.81
   65 H                |  42 C                |  66 H                |   108.13
   65 H                |  42 C                |  67 H                |   109.51
   66 H                |  42 C                |  67 H                |   107.16
   26 C                |  43 C                |  68 H                |   112.00
   26 C                |  43 C                |  69 H                |   110.64
   26 C                |  43 C                |  70 H                |   110.24
   68 H                |  43 C                |  69 H                |   108.43
   68 H                |  43 C                |  70 H                |   107.43
   69 H                |  43 C                |  70 H                |   107.95
    1 C                |  71 N                |   3 Ni               |    72.02
    1 C                |  71 N                |  83 C                |   123.04
    1 C                |  71 N                |  94 C                |   113.46
    3 Ni               |  71 N                |  83 C                |   119.98
    3 Ni               |  71 N                |  94 C                |   113.49
   83 C                |  71 N                |  94 C                |   110.21
   73 C                |  72 C                |  75 C                |   119.32
   73 C                |  72 C                |  81 H                |   120.38
   75 C                |  72 C                |  81 H                |   120.30
   72 C                |  73 C                |  76 C                |   120.27
   72 C                |  73 C                |  82 H                |   120.19
   76 C                |  73 C                |  82 H                |   119.54
   72 C                |  75 C                |  74 H                |   120.12
   72 C                |  75 C                |  78 C                |   120.55
   74 H                |  75 C                |  78 C                |   119.33
   73 C                |  76 C                |  77 C                |   120.91
   73 C                |  76 C                |  79 H                |   121.22
   77 C                |  76 C                |  79 H                |   117.87
    1 C                |  77 C                |  76 C                |   114.87
    1 C                |  77 C                |  78 C                |   126.73
   76 C                |  77 C                |  78 C                |   118.40
   75 C                |  78 C                |  77 C                |   120.52
   75 C                |  78 C                |  80 H                |   118.58
   77 C                |  78 C                |  80 H                |   120.90
   71 N                |  83 C                |  84 C                |   119.75
   71 N                |  83 C                |  85 C                |   119.68
   84 C                |  83 C                |  85 C                |   120.49
   83 C                |  84 C                |  86 C                |   119.71
   83 C                |  84 C                |  87 H                |   119.41
   86 C                |  84 C                |  87 H                |   120.88
   83 C                |  85 C                |  88 C                |   119.60
   83 C                |  85 C                |  89 H                |   119.13
   88 C                |  85 C                |  89 H                |   121.26
   84 C                |  86 C                |  90 C                |   120.11
   84 C                |  86 C                |  91 H                |   119.77
   90 C                |  86 C                |  91 H                |   120.11
   85 C                |  88 C                |  90 C                |   120.17
   85 C                |  88 C                |  92 H                |   119.66
   90 C                |  88 C                |  92 H                |   120.17
   86 C                |  90 C                |  88 C                |   119.91
   86 C                |  90 C                |  93 H                |   119.98
   88 C                |  90 C                |  93 H                |   120.11
   71 N                |  94 C                |  95 H                |   110.15
[...]
  ----- ------------  ---------------      ----- ------------  ---------------
   414    -11.218150  73 C  s               434     11.223906  76 C  s         
   452     11.222652  78 C  s               425    -11.162771  75 C  s         
   443    -10.879555  77 C  s               405     10.525002  72 C  s         
    95      7.604897   8 C  s               184      7.083257  21 C  s         
   100     -7.039578   8 C  py              126     -6.685358  13 C  s         

 Vector  526  Occ=0.000000D+00  E= 1.773648D+00
              MO Center=  5.4D-01,  3.0D-02,  3.5D-01, r^2= 1.7D+01
   Bfn.  Coefficient  Atom+Function         Bfn.  Coefficient  Atom+Function  
  ----- ------------  ---------------      ----- ------------  ---------------
   434     11.841597  76 C  s               100     10.832067   8 C  py        
   414    -10.845965  73 C  s               425    -10.276169  75 C  s         
   184     -9.590196  21 C  s               405      9.579644  72 C  s         
   166     -9.458028  19 C  s               452      9.310200  78 C  s         
   135      8.845040  14 C  s               126      8.173438  13 C  s         

 Vector  527  Occ=0.000000D+00  E= 1.794189D+00
              MO Center=  8.9D-02,  9.8D-01, -5.8D-01, r^2= 1.1D+01
   Bfn.  Coefficient  Atom+Function         Bfn.  Coefficient  Atom+Function  
  ----- ------------  ---------------      ----- ------------  ---------------
   220     10.873112  25 C  s               202     10.401092  23 C  s         
   157     -9.612412  18 C  s               148     -9.184952  17 C  s         
   291     -9.193583  36 C  s               118      9.102589  10 C  py        
   113      8.672462  10 C  s               154      7.931550  17 C  pz        
   396      6.661426  71 N  s               162     -5.418489  18 C  py        

 Vector  528  Occ=0.000000D+00  E= 1.883338D+00
              MO Center= -1.6D+00,  4.7D-01,  3.8D-01, r^2= 5.8D+00
   Bfn.  Coefficient  Atom+Function         Bfn.  Coefficient  Atom+Function  
  ----- ------------  ---------------      ----- ------------  ---------------
    73      3.897006   5 N  py               86     -3.905941   7 C  s         
   104      3.898549   9 C  s                81      3.297449   6 N  px        
   100      3.058353   8 C  py               64     -2.948897   4 C  py        
    77      2.880640   6 N  s                68     -2.411819   5 N  s         
   118      2.297597  10 C  py              113     -2.220244  10 C  s         

 Vector  529  Occ=0.000000D+00  E= 1.911077D+00
              MO Center=  3.3D-01, -4.6D-01, -8.3D-01, r^2= 9.4D+00
   Bfn.  Coefficient  Atom+Function         Bfn.  Coefficient  Atom+Function  
  ----- ------------  ---------------      ----- ------------  ---------------
    22     27.971753   3 Ni s                23    -12.830791   3 Ni s         
    56     -6.766522   3 Ni dzz              54     -6.638055   3 Ni dyy       
    51     -6.107738   3 Ni dxx             166      5.899066  19 C  s         
   238     -4.624009  27 C  s               184      4.489561  21 C  s         
   135     -4.063859  14 C  s               229     -3.993393  26 C  s         

 Vector  530  Occ=0.000000D+00  E= 1.985222D+00
              MO Center=  1.4D+00,  6.6D-01, -1.8D+00, r^2= 4.9D+00
   Bfn.  Coefficient  Atom+Function         Bfn.  Coefficient  Atom+Function  
  ----- ------------  ---------------      ----- ------------  ---------------
    12      7.754446   2 O  s                 9      5.458878   1 C  pz        
   448      4.269568  77 C  py               22     -3.845370   3 Ni s         
    23      3.796718   3 Ni s                 8     -3.771418   1 C  py        
   434     -3.305678  76 C  s                 7      3.149191   1 C  px        
   148     -2.928896  17 C  s               157     -2.679501  18 C  s         

 Vector  531  Occ=0.000000D+00  E= 2.911115D+00
              MO Center=  1.4D-01, -3.7D-01, -7.5D-01, r^2= 2.8D+00
   Bfn.  Coefficient  Atom+Function         Bfn.  Coefficient  Atom+Function  
  ----- ------------  ---------------      ----- ------------  ---------------
    22     11.299647   3 Ni s                23     -7.139740   3 Ni s         
    21      5.972860   3 Ni s                20     -3.311222   3 Ni s         
    45     -2.924050   3 Ni dxx              48     -2.917025   3 Ni dyy       
    50     -2.923928   3 Ni dzz             229     -1.699253  26 C  s         
    54     -1.656482   3 Ni dyy              56     -1.644681   3 Ni dzz       

 Vector  532  Occ=0.000000D+00  E= 3.095565D+00
              MO Center=  2.9D-01, -3.6D-01, -5.4D-01, r^2= 1.1D+00
   Bfn.  Coefficient  Atom+Function         Bfn.  Coefficient  Atom+Function  
  ----- ------------  ---------------      ----- ------------  ---------------
    22      3.138870   3 Ni s                32     -1.182616   3 Ni pz        
    23     -1.173159   3 Ni s               443     -1.069322  77 C  s         
    29      1.058590   3 Ni pz               21      1.026166   3 Ni s         
    12      0.967913   2 O  s               396     -0.920064  71 N  s         
     9      0.812453   1 C  pz               33      0.733611   3 Ni px        

 Vector  533  Occ=0.000000D+00  E= 3.264310D+00
              MO Center=  2.5D-01, -2.8D-01, -6.5D-01, r^2= 1.3D+00
   Bfn.  Coefficient  Atom+Function         Bfn.  Coefficient  Atom+Function  
  ----- ------------  ---------------      ----- ------------  ---------------
     3      3.197144   1 C  s               396     -2.658311  71 N  s         
     8     -2.044583   1 C  py              448      1.781310  77 C  py        
    31     -1.457363   3 Ni py               22      1.402276   3 Ni s         
    23     -1.406228   3 Ni s               443     -1.350270  77 C  s         
   434     -1.286502  76 C  s               452      1.286772  78 C  s         

 Vector  534  Occ=0.000000D+00  E= 3.471097D+00
              MO Center=  2.1D-01, -3.3D-01, -6.3D-01, r^2= 1.3D+00
   Bfn.  Coefficient  Atom+Function         Bfn.  Coefficient  Atom+Function  
  ----- ------------  ---------------      ----- ------------  ---------------
     3      2.923212   1 C  s               448      1.996565  77 C  py        
   434     -1.812005  76 C  s                 8     -1.440943   1 C  py        
    30     -1.383186   3 Ni px               33     -1.270941   3 Ni px        
    63     -1.261735   4 C  px               27      1.119464   3 Ni px        
    77     -1.107400   6 N  s               473      1.101291  83 C  px        

 Vector  535  Occ=0.000000D+00  E= 4.761193D+00
              MO Center=  1.8D-01, -3.5D-01, -6.2D-01, r^2= 5.8D-01
   Bfn.  Coefficient  Atom+Function         Bfn.  Coefficient  Atom+Function  
  ----- ------------  ---------------      ----- ------------  ---------------
    49      1.641452   3 Ni dyz              43     -1.349089   3 Ni dyz       
    22     -1.104067   3 Ni s                46      1.101014   3 Ni dxy       
    40     -0.906359   3 Ni dxy              55     -0.755467   3 Ni dyz       
    23      0.658927   3 Ni s               396      0.497655  71 N  s         
   148     -0.466460  17 C  s                52     -0.460543   3 Ni dxy       

 Vector  536  Occ=0.000000D+00  E= 4.796848D+00
              MO Center=  1.8D-01, -3.5D-01, -6.3D-01, r^2= 6.1D-01
   Bfn.  Coefficient  Atom+Function         Bfn.  Coefficient  Atom+Function  
  ----- ------------  ---------------      ----- ------------  ---------------
    48      1.116878   3 Ni dyy              95      0.960393   8 C  s         
    47     -0.927898   3 Ni dxz              42     -0.835372   3 Ni dyy       
     3      0.778428   1 C  s                41      0.755329   3 Ni dxz       
    12     -0.648938   2 O  s                64      0.619101   4 C  py        
     8      0.584740   1 C  py               77     -0.584089   6 N  s         

 Vector  537  Occ=0.000000D+00  E= 4.842365D+00
              MO Center=  1.7D-01, -3.5D-01, -6.3D-01, r^2= 6.4D-01
   Bfn.  Coefficient  Atom+Function         Bfn.  Coefficient  Atom+Function  
  ----- ------------  ---------------      ----- ------------  ---------------
    22      1.123966   3 Ni s                45     -1.014413   3 Ni dxx       
    50      0.932310   3 Ni dzz              56     -0.854453   3 Ni dzz       
    44     -0.838850   3 Ni dzz              39      0.716207   3 Ni dxx       
    47     -0.598583   3 Ni dxz             478     -0.581597  84 C  s         
   487      0.579421  85 C  s               101      0.541303   8 C  pz        

 Vector  538  Occ=0.000000D+00  E= 4.987181D+00
              MO Center=  1.7D-01, -3.6D-01, -6.2D-01, r^2= 6.9D-01
   Bfn.  Coefficient  Atom+Function         Bfn.  Coefficient  Atom+Function  
  ----- ------------  ---------------      ----- ------------  ---------------
    22     -1.631294   3 Ni s                 3      1.587020   1 C  s         
    46      1.456539   3 Ni dxy              52     -1.178789   3 Ni dxy       
    64     -1.116076   4 C  py               40     -1.107084   3 Ni dxy       
    47     -1.027549   3 Ni dxz             396     -0.942728  71 N  s         
    49     -0.874796   3 Ni dyz              68     -0.865513   5 N  s         

 Vector  539  Occ=0.000000D+00  E= 5.109700D+00
              MO Center=  1.9D-01, -3.6D-01, -6.4D-01, r^2= 7.0D-01
   Bfn.  Coefficient  Atom+Function         Bfn.  Coefficient  Atom+Function  
  ----- ------------  ---------------      ----- ------------  ---------------
    22      3.398709   3 Ni s                47      1.570701   3 Ni dxz       
    53     -1.568260   3 Ni dxz              59     -1.349806   4 C  s         
    63     -1.267240   4 C  px               33     -1.253922   3 Ni px        
   396     -1.199090  71 N  s                52     -1.158651   3 Ni dxy       
    41     -1.146877   3 Ni dxz              46      1.124639   3 Ni dxy       

 Vector  540  Occ=0.000000D+00  E= 1.027886D+01
              MO Center=  1.8D-01, -3.5D-01, -6.4D-01, r^2= 6.4D-01
   Bfn.  Coefficient  Atom+Function         Bfn.  Coefficient  Atom+Function  
  ----- ------------  ---------------      ----- ------------  ---------------
    21     27.727673   3 Ni s                20    -17.516416   3 Ni s         
    45     -7.600609   3 Ni dxx              48     -7.538676   3 Ni dyy       
    50     -7.535174   3 Ni dzz              22      4.631281   3 Ni s         
    23     -2.768950   3 Ni s                19      1.510620   3 Ni s         
    54     -0.750077   3 Ni dyy              56     -0.737196   3 Ni dzz       

 Vector  541  Occ=0.000000D+00  E= 4.997947D+01
              MO Center=  1.8D-01, -3.5D-01, -6.3D-01, r^2= 1.1D-01
   Bfn.  Coefficient  Atom+Function         Bfn.  Coefficient  Atom+Function  
  ----- ------------  ---------------      ----- ------------  ---------------
    20     21.435624   3 Ni s                21    -20.716460   3 Ni s         
    45      5.173184   3 Ni dxx              48      5.161854   3 Ni dyy       
    50      5.159638   3 Ni dzz              19     -4.353177   3 Ni s         
    39     -2.735856   3 Ni dxx              42     -2.732339   3 Ni dyy       
    44     -2.731529   3 Ni dzz              22     -2.080336   3 Ni s         

 Vector  542  Occ=0.000000D+00  E= 1.174675D+02
              MO Center=  1.8D-01, -3.5D-01, -6.3D-01, r^2= 2.9D-02
   Bfn.  Coefficient  Atom+Function         Bfn.  Coefficient  Atom+Function  
  ----- ------------  ---------------      ----- ------------  ---------------
    26      0.910141   3 Ni pz               24      0.505218   3 Ni px        
    29     -0.343634   3 Ni pz               25     -0.223955   3 Ni py        
    27     -0.190745   3 Ni px               32      0.176812   3 Ni pz        
    30      0.098330   3 Ni px               28      0.084642   3 Ni py        
    22     -0.070619   3 Ni s                33     -0.064896   3 Ni px        

 Vector  543  Occ=0.000000D+00  E= 1.175560D+02
              MO Center=  1.8D-01, -3.5D-01, -6.3D-01, r^2= 3.0D-02
   Bfn.  Coefficient  Atom+Function         Bfn.  Coefficient  Atom+Function  
  ----- ------------  ---------------      ----- ------------  ---------------
    25      1.040620   3 Ni py               28     -0.398133   3 Ni py        
     3     -0.260786   1 C  s                31      0.213459   3 Ni py        
   396      0.191830  71 N  s                26      0.174508   3 Ni pz        
     8      0.171843   1 C  py              448     -0.154102  77 C  py        
    24      0.146877   3 Ni px              434      0.117921  76 C  s         

 Vector  544  Occ=0.000000D+00  E= 1.176794D+02
              MO Center=  1.8D-01, -3.5D-01, -6.3D-01, r^2= 3.1D-02
   Bfn.  Coefficient  Atom+Function         Bfn.  Coefficient  Atom+Function  
  ----- ------------  ---------------      ----- ------------  ---------------
    24      0.926859   3 Ni px               26     -0.525011   3 Ni pz        
    27     -0.361167   3 Ni px                3     -0.222060   1 C  s         
    29      0.204507   3 Ni pz               30      0.204740   3 Ni px        
   448     -0.169548  77 C  py              434      0.152619  76 C  s         
     8      0.126695   1 C  py               63      0.119220   4 C  px        

 Vector  545  Occ=0.000000D+00  E= 6.767348D+02
              MO Center=  1.8D-01, -3.5D-01, -6.3D-01, r^2= 2.3D-02
   Bfn.  Coefficient  Atom+Function         Bfn.  Coefficient  Atom+Function  
  ----- ------------  ---------------      ----- ------------  ---------------
    20     28.880699   3 Ni s                21    -15.353797   3 Ni s         
    39     -7.285106   3 Ni dxx              42     -7.286757   3 Ni dyy       
    44     -7.286562   3 Ni dzz              19     -4.276462   3 Ni s         
    45      3.408406   3 Ni dxx              48      3.414154   3 Ni dyy       
    50      3.413409   3 Ni dzz              51      0.132664   3 Ni dxx       


 center of mass
 --------------
 x =   0.06662561 y =  -0.01034598 z =  -0.03161285

 moments of inertia (a.u.)
 ------------------
       24074.629574501756           0.000000000009           0.000000000004
           0.000000000009       21663.901060632725           0.000000000001
           0.000000000004           0.000000000001       29704.800281409985

     Multipole analysis of the density
     ---------------------------------

     L   x y z        total         alpha         beta         nuclear
     -   - - -        -----         -----         ----         -------
     0   0 0 0     -0.000000   -172.000000   -172.000000    344.000000

     1   1 0 0     -1.075495      1.136857      1.136857     -3.349210
     1   0 1 0     -1.010478     -3.814893     -3.814893      6.619308
     1   0 0 1      1.212185     -5.354161     -5.354161     11.920507

     2   2 0 0   -201.027617  -3885.002944  -3885.002944   7568.978271
     2   1 1 0     -3.645478     -6.467201     -6.467201      9.288925
     2   1 0 1      1.836639    -50.991837    -50.991837    103.820313
     2   0 2 0   -203.204119  -4535.840634  -4535.840634   8868.477148
     2   0 1 1      3.741836     -2.337315     -2.337315      8.416465
     2   0 0 2   -209.075482  -2435.069743  -2435.069743   4661.064004


 Task  times  cpu:     3210.8s     wall:     3210.8s


                                NWChem Input Module
                                -------------------


 Summary of allocated global arrays
-----------------------------------
  No active global arrays


MA_summarize_allocated_blocks: starting scan ...
heap block 'gridpts', handle 102, address 0x61076126faa0:
	type of elements:		double precision
	number of elements:		203683869
	address of client space:	0x61076126fb00
	index for client space:		16511035
	total number of bytes:		1629471056
MA_summarize_allocated_blocks: scan completed: 1 heap block, 0 stack blocks
MA usage statistics:

	allocation statistics:
					      heap	     stack
					      ----	     -----
	current number of blocks	         1	         0
	maximum number of blocks	        34	        58
	current total bytes		1629471056	         0
	maximum total bytes		1648842024	  45232232
	maximum total K-bytes		   1648843	     45233
	maximum total M-bytes		      1649	        46


                                     CITATION
                                     --------
                Please cite the following reference when publishing
                           results obtained with NWChem:

          E. Apra, E. J. Bylaska, W. A. de Jong, N. Govind, K. Kowalski,
       T. P. Straatsma, M. Valiev, H. J. J. van Dam, Y. Alexeev, J. Anchell,
       V. Anisimov, F. W. Aquino, R. Atta-Fynn, J. Autschbach, N. P. Bauman,
     J. C. Becca, D. E. Bernholdt, K. Bhaskaran-Nair, S. Bogatko, P. Borowski,
         J. Boschen, J. Brabec, A. Bruner, E. Cauet, Y. Chen, G. N. Chuev,
      C. J. Cramer, J. Daily, M. J. O. Deegan, T. H. Dunning Jr., M. Dupuis,
   K. G. Dyall, G. I. Fann, S. A. Fischer, A. Fonari, H. Fruchtl, L. Gagliardi,
      J. Garza, N. Gawande, S. Ghosh, K. Glaesemann, A. W. Gotz, J. Hammond,
       V. Helms, E. D. Hermes, K. Hirao, S. Hirata, M. Jacquelin, L. Jensen,
   B. G. Johnson, H. Jonsson, R. A. Kendall, M. Klemm, R. Kobayashi, V. Konkov,
      S. Krishnamoorthy, M. Krishnan, Z. Lin, R. D. Lins, R. J. Littlefield,
      A. J. Logsdail, K. Lopata, W. Ma, A. V. Marenich, J. Martin del Campo,
   D. Mejia-Rodriguez, J. E. Moore, J. M. Mullin, T. Nakajima, D. R. Nascimento,
    J. A. Nichols, P. J. Nichols, J. Nieplocha, A. Otero-de-la-Roza, B. Palmer,
    A. Panyala, T. Pirojsirikul, B. Peng, R. Peverati, J. Pittner, L. Pollack,
   R. M. Richard, P. Sadayappan, G. C. Schatz, W. A. Shelton, D. W. Silverstein,
   D. M. A. Smith, T. A. Soares, D. Song, M. Swart, H. L. Taylor, G. S. Thomas,
            V. Tipparaju, D. G. Truhlar, K. Tsemekhman, T. Van Voorhis,
      A. Vazquez-Mayagoitia, P. Verma, O. Villa, A. Vishnu, K. D. Vogiatzis,
        D. Wang, J. H. Weare, M. J. Williamson, T. L. Windus, K. Wolinski,
        A. T. Wong, Q. Wu, C. Yang, Q. Yu, M. Zacharias, Z. Zhang, Y. Zhao,
                                and R. J. Harrison
                        "NWChem: Past, present, and future
                         J. Chem. Phys. 152, 184102 (2020)
                               doi:10.1063/5.0004997

                                      AUTHORS
                                      -------
  E. Apra, E. J. Bylaska, N. Govind, K. Kowalski, M. Valiev, D. Mejia-Rodriguez,
       A. Kunitsa, N. P. Bauman, A. Panyala, W. A. de Jong, T. P. Straatsma,
   H. J. J. van Dam, D. Wang, T. L. Windus, J. Hammond, J. Autschbach, A. Woods,
    K. Bhaskaran-Nair, J. Brabec, K. Lopata, S. A. Fischer, S. Krishnamoorthy,
     M. Jacquelin, W. Ma, M. Klemm, O. Villa, Y. Chen, V. Anisimov, F. Aquino,
     S. Hirata, M. T. Hackler, E. Hermes, L. Jensen, J. E. Moore, J. C. Becca,
      V. Konjkov, T. Risthaus, M. Malagoli, A. Marenich, A. Otero-de-la-Roza,
        J. Mullin, P. Nichols, R. Peverati, J. Pittner, Y. Zhao, P.-D. Fan,
        A. Fonari, M. J. Williamson, R. J. Harrison, J. R. Rehr, M. Dupuis,
     D. Silverstein, D. M. A. Smith, J. Nieplocha, V. Tipparaju, M. Krishnan,
     B. E. Van Kuiken, A. Vazquez-Mayagoitia, M. Swart, Q. Wu, T. Van Voorhis,
     A. A. Auer, M. Nooijen, L. D. Crosby, E. Brown, G. Cisneros, G. I. Fann,
   H. Fruchtl, J. Garza, K. Hirao, R. A. Kendall, J. A. Nichols, K. Tsemekhman,
    K. Wolinski, J. Anchell, D. E. Bernholdt, P. Borowski, T. Clark, D. Clerc,
   H. Dachsel, M. J. O. Deegan, K. Dyall, D. Elwood, E. Glendening, M. Gutowski,
   A. C. Hess, J. Jaffe, B. G. Johnson, J. Ju, R. Kobayashi, R. Kutteh, Z. Lin,
   R. Littlefield, X. Long, B. Meng, T. Nakajima, S. Niu, L. Pollack, M. Rosing,
   K. Glaesemann, G. Sandrone, M. Stave, H. Taylor, G. Thomas, J. H. van Lenthe,
                               A. T. Wong, Z. Zhang.

 Total times  cpu:     3211.3s     wall:     3211.3s
