 argument  1 = nwchem.in
  NWChem w/ OpenMP: maximum threads =    1
                                         
                                         


             Northwest Computational Chemistry Package (NWChem) 7.2.3
             --------------------------------------------------------


                    Environmental Molecular Sciences Laboratory
                       Pacific Northwest National Laboratory
                                Richland, WA 99352

                              Copyright (c) 1994-2022
                       Pacific Northwest National Laboratory
                            Battelle Memorial Institute

             NWChem is an open-source computational chemistry package
                        distributed under the terms of the
                      Educational Community License (ECL) 2.0
             A copy of the license is included with this distribution
                              in the LICENSE.TXT file

                                  ACKNOWLEDGMENT
                                  --------------

            This software and its documentation were developed at the
            EMSL at Pacific Northwest National Laboratory, a multiprogram
            national laboratory, operated for the U.S. Department of Energy
            by Battelle under Contract Number DE-AC05-76RL01830. Support
            for this work was provided by the Department of Energy Office
            of Biological and Environmental Research, Office of Basic
            Energy Sciences, and the Office of Advanced Scientific Computing.


           Job information
           ---------------

    hostname        = 2b4e72532969
    program         = nwchem
    date            = Thu Jul  3 09:32:18 2025

    compiled        = Fri_May_02_22:05:35_2025
    source          = /opt/nwchem
    nwchem branch   = 7.2.3
    nwchem revision = N/A
    ga revision     = 5.9.1
    use scalapack   = T
    input           = nwchem.in
    prefix          = ni_singlepoint.
    data base       = ./ni_singlepoint.db
    status          = startup
    nproc           =        5
    time left       =     -1s



           Memory information
           ------------------

    heap     =    509724444 doubles =     3888.9 Mbytes
    stack    =    509724445 doubles =     3888.9 Mbytes
    global   =    291271111 doubles =     2222.2 Mbytes (distinct from heap & stack)
    total    =   1310720000 doubles =    10000.0 Mbytes
    verify   = yes
    hardfail = no 


           Directory information
           ---------------------

  0 permanent = .
  0 scratch   = .




                                NWChem Input Module
                                -------------------


                          Ni complex single-point energy
                          ------------------------------

 Scaling coordinates for geometry "geometry" by  1.889725989
 (inverse scale =  0.529177249)

 C1  symmetry detected

          ------
          auto-z
          ------
  no constraints, skipping    0.0000000000000000     
  no constraints, skipping    0.0000000000000000     


                             Geometry "geometry" -> ""
                             -------------------------

 Output coordinates in angstroms (scale by  1.889725989 to convert to a.u.)

  No.       Tag          Charge          X              Y              Z
 ---- ---------------- ---------- -------------- -------------- --------------
    1 C                    6.0000     1.40255563     0.84241374    -1.14369636
    2 O                    8.0000     1.29879029     1.60238628    -2.07699382
    3 Ni                  28.0000     0.09492724    -0.40889998    -0.83517504
    4 C                    6.0000    -1.10355847     0.49969064     0.32309951
    5 N                    7.0000    -1.98638210    -0.26234511     0.99021034
    6 N                    7.0000    -1.43181191     1.77327695     0.54521422
    7 C                    6.0000    -2.98894270     0.49591183     1.73917396
    8 C                    6.0000    -1.92646642    -1.68965271     1.01829189
    9 C                    6.0000    -2.66019905     1.93503667     1.33211895
   10 C                    6.0000    -0.73843301     2.91836410     0.04203789
   11 H                    1.0000    -3.99487117     0.19145945     1.44595681
   12 H                    1.0000    -2.87906745     0.32550871     2.81234912
   13 C                    6.0000    -2.51604621    -2.41249546    -0.02510729
   14 C                    6.0000    -1.28730274    -2.31798943     2.09469417
   15 H                    1.0000    -3.44011990     2.38432025     0.71339490
   16 H                    1.0000    -2.48351720     2.58932746     2.18564989
   17 C                    6.0000     0.16503310     3.56692489     0.88920930
   18 C                    6.0000    -1.00237120     3.36090243    -1.25628074
   19 C                    6.0000    -2.42564195    -3.80048825     0.01599891
   20 C                    6.0000    -3.27756460    -1.73176693    -1.14679938
   21 C                    6.0000    -1.24503713    -3.70652722     2.10549127
   22 C                    6.0000    -0.64891422    -1.52713114     3.22015744
   23 C                    6.0000     0.84123125     4.67359752     0.38887876
   24 C                    6.0000     0.37903635     3.12986377     2.32724869
   25 C                    6.0000    -0.30764140     4.47418195    -1.71142527
   26 C                    6.0000    -2.02442515     2.67810792    -2.14461181
   27 C                    6.0000    -1.79913743    -4.44157309     1.06975258
   28 H                    1.0000    -2.85158897    -4.38647893    -0.78843047
   29 C                    6.0000    -4.78092999    -1.97689085    -0.98228936
   30 C                    6.0000    -2.79582739    -2.17439189    -2.52856174
   31 H                    1.0000    -3.10311212    -0.65647361    -1.06772101
   32 H                    1.0000    -0.75063795    -4.22040428     2.92077244
   33 C                    6.0000     0.80901737    -1.93228163     3.44326332
   34 C                    6.0000    -1.45306162    -1.67881287     4.51438912
   35 H                    1.0000    -0.65086688    -0.47285978     2.93389527
   36 C                    6.0000     0.61115621     5.11970214    -0.90150293
   37 H                    1.0000     1.55616607     5.19197286     1.01606838
   38 C                    6.0000    -0.21180187     4.16453827     3.29116982
   39 C                    6.0000     1.85068921     2.87897019     2.65393336
   40 H                    1.0000    -0.15001230     2.18491825     2.47441866
   41 H                    1.0000    -0.47361636     4.83134640    -2.71967411
   42 C                    6.0000    -1.49847163     2.41989327    -3.55669978
   43 C                    6.0000    -3.31667376     3.49991273    -2.19616151
   44 H                    1.0000    -2.25469939     1.70599735    -1.70298479
   45 H                    1.0000    -1.73197260    -5.52184787     1.07963969
   46 H                    1.0000    -5.13912540    -1.64133875    -0.00671749
   47 H                    1.0000    -5.00879813    -3.04139404    -1.06912423
   48 H                    1.0000    -5.34190314    -1.44809918    -1.75489079
   49 H                    1.0000    -1.71864701    -2.03313796    -2.63199143
   50 H                    1.0000    -3.30287853    -1.59584512    -3.30320664
   51 H                    1.0000    -3.01808410    -3.22840183    -2.70721730
   52 H                    1.0000     1.37959514    -1.88544811     2.51603216
   53 H                    1.0000     0.88284627    -2.94989134     3.83164733
   54 H                    1.0000     1.27843810    -1.26571984     4.16910858
   55 H                    1.0000    -2.49562400    -1.38416387     4.38098687
   56 H                    1.0000    -1.02133347    -1.06814315     5.30944336
   57 H                    1.0000    -1.44714396    -2.71863983     4.84807600
   58 H                    1.0000     1.15207750     5.97829386    -1.27891908
   59 H                    1.0000    -1.26512536     4.36231756     3.08288160
   60 H                    1.0000     0.32113861     5.11378361     3.20537735
   61 H                    1.0000    -0.12223253     3.82214540     4.32405056
   62 H                    1.0000     2.28357271     2.13154367     1.99163131
   63 H                    1.0000     1.95018606     2.52638043     3.68278792
   64 H                    1.0000     2.43845210     3.79429663     2.56084673
   65 H                    1.0000    -0.53812072     1.90882835    -3.52079098
   66 H                    1.0000    -1.37153984     3.35311519    -4.10975081
   67 H                    1.0000    -2.21225488     1.80777272    -4.11203510
   68 H                    1.0000    -3.73009388     3.67616113    -1.20114501
   69 H                    1.0000    -4.07199062     2.98981941    -2.79738955
   70 H                    1.0000    -3.12724197     4.47549420    -2.64952072
   71 N                    7.0000     0.82095347    -1.59389789    -2.03713297
   72 C                    6.0000     4.93013685     0.92305628     1.27432615
   73 C                    6.0000     4.71212640     1.91073276     0.31950420
   74 H                    1.0000     4.19567005    -0.88974519     2.16076211
   75 C                    6.0000     4.01807029    -0.11229724     1.42824259
   76 C                    6.0000     3.57476510     1.87090898    -0.46965272
   77 C                    6.0000     2.64902502     0.84437868    -0.30318611
   78 C                    6.0000     2.87889510    -0.14999254     0.63694541
   79 H                    1.0000     3.37755558     2.62577292    -1.22028124
   80 H                    1.0000     2.16549028    -0.95987336     0.73009567
   81 H                    1.0000     5.81713282     0.95895643     1.89444672
   82 H                    1.0000     5.43242927     2.70940206     0.19337349
   83 C                    6.0000     1.61404180    -2.65047514    -1.62781600
   84 C                    6.0000     2.67999837    -3.16892481    -2.38120300
   85 C                    6.0000     1.33557635    -3.27955873    -0.39940086
   86 C                    6.0000     3.41440014    -4.25525019    -1.92339426
   87 H                    1.0000     2.94706103    -2.71894314    -3.32660441
   88 C                    6.0000     2.07023522    -4.35986328     0.04624880
   89 H                    1.0000     0.49551940    -2.91792644     0.18430369
   90 C                    6.0000     3.12167343    -4.86542474    -0.71428268
   91 H                    1.0000     4.23270372    -4.62653686    -2.52923205
   92 H                    1.0000     1.80799484    -4.82744514     0.98915235
   93 H                    1.0000     3.69120268    -5.72027819    -0.37429482
   94 C                    6.0000     1.00162580    -1.16281637    -3.41108914
   95 H                    1.0000     2.00194066    -0.75835368    -3.61475190
   96 H                    1.0000     0.82836904    -1.99341606    -4.10610967
   97 H                    1.0000     0.28803058    -0.37216278    -3.63764578

      Atomic Mass 
      ----------- 

      C                 12.000000
      O                 15.994910
      Ni                57.935300
      N                 14.003070
      H                  1.007825


 Effective nuclear repulsion energy (a.u.)    7260.2859960835

            Nuclear Dipole moment (a.u.) 
            ----------------------------
        X                 Y               Z
 ---------------- ---------------- ----------------
    -0.0000000000    -0.0000000000    -0.0000000000



                                Z-matrix (autoz)
                                -------- 

 Units are Angstrom for bonds and degrees for angles

      Type          Name      I     J     K     L     M      Value
      ----------- --------  ----- ----- ----- ----- ----- ----------
    1 Stretch                  1     2                       1.20804
    2 Stretch                  1     3                       1.83599
    3 Stretch                  1    77                       1.50338
    4 Stretch                  3     4                       1.89829
    5 Stretch                  3    71                       1.83740
    6 Stretch                  4     5                       1.34354
    7 Stretch                  4     6                       1.33383
    8 Stretch                  5     7                       1.46323
    9 Stretch                  5     8                       1.42884
   10 Stretch                  6     9                       1.46776
   11 Stretch                  6    10                       1.43010
   12 Stretch                  7     9                       1.53129
   13 Stretch                  7    11                       1.09113
   14 Stretch                  7    12                       1.09216
   15 Stretch                  8    13                       1.39957
   16 Stretch                  8    14                       1.40071
   17 Stretch                  9    15                       1.09222
   18 Stretch                  9    16                       1.08988
   19 Stretch                 10    17                       1.39806
   20 Stretch                 10    18                       1.39683
   21 Stretch                 13    19                       1.39154
   22 Stretch                 13    20                       1.51707
   23 Stretch                 14    21                       1.38922
   24 Stretch                 14    22                       1.51646
   25 Stretch                 17    23                       1.39007
   26 Stretch                 17    24                       1.51815
   27 Stretch                 18    25                       1.38896
   28 Stretch                 18    26                       1.51655
   29 Stretch                 19    27                       1.38344
   30 Stretch                 19    28                       1.08255
   31 Stretch                 20    29                       1.53208
   32 Stretch                 20    30                       1.52881
   33 Stretch                 20    31                       1.09222
   34 Stretch                 21    27                       1.38567
   35 Stretch                 21    32                       1.08314
   36 Stretch                 22    33                       1.52954
   37 Stretch                 22    34                       1.53124
   38 Stretch                 22    35                       1.09245
   39 Stretch                 23    36                       1.38457
   40 Stretch                 23    37                       1.08315
   41 Stretch                 24    38                       1.53257
   42 Stretch                 24    39                       1.52821
   43 Stretch                 24    40                       1.09292
   44 Stretch                 25    36                       1.38451
   45 Stretch                 25    41                       1.08244
   46 Stretch                 26    42                       1.52882
   47 Stretch                 26    43                       1.53229
   48 Stretch                 26    44                       1.09227
   49 Stretch                 27    45                       1.08241
   50 Stretch                 29    46                       1.09208
   51 Stretch                 29    47                       1.09208
   52 Stretch                 29    48                       1.09143
   53 Stretch                 30    49                       1.09131
   54 Stretch                 30    50                       1.09174
   55 Stretch                 30    51                       1.09190
   56 Stretch                 33    52                       1.08973
   57 Stretch                 33    53                       1.09171
   58 Stretch                 33    54                       1.09156
   59 Stretch                 34    55                       1.09158
   60 Stretch                 34    56                       1.09152
   61 Stretch                 34    57                       1.09207
   62 Stretch                 36    58                       1.08269
   63 Stretch                 38    59                       1.09178
   64 Stretch                 38    60                       1.09199
   65 Stretch                 38    61                       1.09183
   66 Stretch                 39    62                       1.08843
   67 Stretch                 39    63                       1.09214
   68 Stretch                 39    64                       1.09177
   69 Stretch                 42    65                       1.08846
   70 Stretch                 42    66                       1.09219
   71 Stretch                 42    67                       1.09205
   72 Stretch                 43    68                       1.09180
   73 Stretch                 43    69                       1.09187
   74 Stretch                 43    70                       1.09233
   75 Stretch                 71    83                       1.38307
   76 Stretch                 71    94                       1.45129
   77 Stretch                 72    73                       1.39094
   78 Stretch                 72    75                       1.38835
   79 Stretch                 72    81                       1.08287
   80 Stretch                 73    76                       1.38490
   81 Stretch                 73    82                       1.08287
   82 Stretch                 74    75                       1.08284
   83 Stretch                 75    78                       1.38755
   84 Stretch                 76    77                       1.39229
   85 Stretch                 76    79                       1.08266
   86 Stretch                 77    78                       1.38761
   87 Stretch                 78    80                       1.08330
   88 Stretch                 83    84                       1.40451
   89 Stretch                 83    85                       1.40794
   90 Stretch                 84    86                       1.38890
   91 Stretch                 84    87                       1.08055
   92 Stretch                 85    88                       1.38036
   93 Stretch                 85    89                       1.08498
   94 Stretch                 86    90                       1.38562
   95 Stretch                 86    91                       1.08375
   96 Stretch                 88    90                       1.39267
   97 Stretch                 88    92                       1.08465
   98 Stretch                 90    93                       1.08200
   99 Stretch                 94    95                       1.09804
  100 Stretch                 94    96                       1.09680
  101 Stretch                 94    97                       1.08889
  102 Bend                     1     3     4               103.06050
  103 Bend                     1     3    71                92.76276
  104 Bend                     1    77    76               119.03860
  105 Bend                     1    77    78               121.01089
  106 Bend                     2     1     3               119.82836
  107 Bend                     2     1    77               120.15383
  108 Bend                     3     1    77               119.83157
  109 Bend                     3     4     5               116.50931
  110 Bend                     3     4     6               135.56123
  111 Bend                     3    71    83               121.71341
  112 Bend                     3    71    94               118.48514
  113 Bend                     4     3    71               163.19752
  114 Bend                     4     5     7               114.23310
  115 Bend                     4     5     8               123.28331
  116 Bend                     4     6     9               113.60763
  117 Bend                     4     6    10               125.91809
  118 Bend                     5     4     6               107.28790
  119 Bend                     5     7     9               101.76274
  120 Bend                     5     7    11               110.45836
  121 Bend                     5     7    12               110.68173
  122 Bend                     5     8    13               118.92113
  123 Bend                     5     8    14               118.83847
  124 Bend                     6     9     7               102.62754
  125 Bend                     6     9    15               109.83061
  126 Bend                     6     9    16               110.50893
  127 Bend                     6    10    17               118.13572
  128 Bend                     6    10    18               119.28110
  129 Bend                     7     5     8               122.43381
  130 Bend                     7     9    15               112.57396
  131 Bend                     7     9    16               113.00591
  132 Bend                     8    13    19               117.75997
  133 Bend                     8    13    20               122.06825
  134 Bend                     8    14    21               117.91880
  135 Bend                     8    14    22               121.90296
  136 Bend                     9     6    10               120.40866
  137 Bend                     9     7    11               112.87474
  138 Bend                     9     7    12               112.72070
  139 Bend                    10    17    23               117.74739
  140 Bend                    10    17    24               122.10869
  141 Bend                    10    18    25               117.64563
  142 Bend                    10    18    26               121.94800
  143 Bend                    11     7    12               108.25644
  144 Bend                    13     8    14               122.23887
  145 Bend                    13    19    27               120.94001
  146 Bend                    13    19    28               119.49915
  147 Bend                    13    20    29               109.96074
  148 Bend                    13    20    30               112.34481
  149 Bend                    13    20    31               107.94185
  150 Bend                    14    21    27               120.81226
  151 Bend                    14    21    32               119.59972
  152 Bend                    14    22    33               111.80062
  153 Bend                    14    22    34               110.76594
  154 Bend                    14    22    35               107.94257
  155 Bend                    15     9    16               108.20691
  156 Bend                    17    10    18               122.57222
  157 Bend                    17    23    36               120.73868
  158 Bend                    17    23    37               119.58256
  159 Bend                    17    24    38               110.30767
  160 Bend                    17    24    39               112.67475
  161 Bend                    17    24    40               107.95249
  162 Bend                    18    25    36               120.92707
  163 Bend                    18    25    41               119.53829
  164 Bend                    18    26    42               112.65763
  165 Bend                    18    26    43               110.27912
  166 Bend                    18    26    44               107.81498
  167 Bend                    19    13    20               120.13385
  168 Bend                    19    27    21               120.30563
  169 Bend                    19    27    45               119.83781
  170 Bend                    20    29    46               111.62985
  171 Bend                    20    29    47               110.61966
  172 Bend                    20    29    48               110.53752
  173 Bend                    20    30    49               111.05171
  174 Bend                    20    30    50               109.97001
  175 Bend                    20    30    51               111.29787
  176 Bend                    21    14    22               120.17758
  177 Bend                    21    27    45               119.85312
  178 Bend                    22    33    52               111.32056
  179 Bend                    22    33    53               111.30052
  180 Bend                    22    33    54               110.19122
  181 Bend                    22    34    55               111.81093
  182 Bend                    22    34    56               110.64112
  183 Bend                    22    34    57               110.47098
  184 Bend                    23    17    24               120.10357
  185 Bend                    23    36    25               120.34780
  186 Bend                    23    36    58               119.82586
  187 Bend                    24    38    59               111.97788
  188 Bend                    24    38    60               110.44470
  189 Bend                    24    38    61               110.58857
  190 Bend                    24    39    62               111.44798
  191 Bend                    24    39    63               110.00590
  192 Bend                    24    39    64               111.25787
  193 Bend                    25    18    26               120.39846
  194 Bend                    25    36    58               119.82632
  195 Bend                    26    42    65               110.63203
  196 Bend                    26    42    66               111.30742
  197 Bend                    26    42    67               109.84684
  198 Bend                    26    43    68               112.04013
  199 Bend                    26    43    69               110.57074
  200 Bend                    26    43    70               110.28634
  201 Bend                    27    19    28               119.56083
  202 Bend                    27    21    32               119.56932
  203 Bend                    29    20    30               111.09581
  204 Bend                    29    20    31               107.84667
  205 Bend                    30    20    31               107.46626
  206 Bend                    33    22    34               110.55146
  207 Bend                    33    22    35               107.19075
  208 Bend                    34    22    35               108.42947
  209 Bend                    36    23    37               119.67875
  210 Bend                    36    25    41               119.52523
  211 Bend                    38    24    39               110.34294
  212 Bend                    38    24    40               108.20409
  213 Bend                    39    24    40               107.18282
  214 Bend                    42    26    43               110.46540
  215 Bend                    42    26    44               107.19701
  216 Bend                    43    26    44               108.24792
  217 Bend                    46    29    47               107.58345
  218 Bend                    46    29    48               108.35547
  219 Bend                    47    29    48               107.98271
  220 Bend                    49    30    50               108.81957
  221 Bend                    49    30    51               108.08028
  222 Bend                    50    30    51               107.51214
  223 Bend                    52    33    53               107.90019
  224 Bend                    52    33    54               108.32389
  225 Bend                    53    33    54               107.67124
  226 Bend                    55    34    56               108.40717
  227 Bend                    55    34    57               107.42950
  228 Bend                    56    34    57               107.93848
  229 Bend                    59    38    60               107.36098
  230 Bend                    59    38    61               108.44726
  231 Bend                    60    38    61               107.87169
  232 Bend                    62    39    63               108.37922
  233 Bend                    62    39    64               108.04294
  234 Bend                    63    39    64               107.57449
  235 Bend                    65    42    66               108.38228
  236 Bend                    65    42    67               109.28582
  237 Bend                    66    42    67               107.30151
  238 Bend                    68    43    69               108.37897
  239 Bend                    68    43    70               107.44188
  240 Bend                    69    43    70               107.97925
  241 Bend                    71    83    84               123.94856
  242 Bend                    71    83    85               119.08680
  243 Bend                    71    94    95               113.47935
  244 Bend                    71    94    96               110.81236
  245 Bend                    71    94    97               109.33381
  246 Bend                    72    73    76               119.96467
  247 Bend                    72    73    82               119.96126
  248 Bend                    72    75    74               120.17683
  249 Bend                    72    75    78               119.76115
  250 Bend                    73    72    75               120.17697
  251 Bend                    73    72    81               119.86477
  252 Bend                    73    76    77               119.94247
  253 Bend                    73    76    79               121.64258
  254 Bend                    74    75    78               120.06175
  255 Bend                    75    72    81               119.95704
  256 Bend                    75    78    77               120.19310
  257 Bend                    75    78    80               120.79321
  258 Bend                    76    73    82               120.07404
  259 Bend                    76    77    78               119.94780
  260 Bend                    77    76    79               118.41449
  261 Bend                    77    78    80               119.00624
  262 Bend                    83    71    94               115.83032
  263 Bend                    83    84    86               120.87821
  264 Bend                    83    84    87               120.21017
  265 Bend                    83    85    88               121.74281
  266 Bend                    83    85    89               118.26806
  267 Bend                    84    83    85               116.94819
  268 Bend                    84    86    90               121.35582
  269 Bend                    84    86    91               118.87820
  270 Bend                    85    88    90               120.63837
  271 Bend                    85    88    92               119.29875
  272 Bend                    86    84    87               118.90917
  273 Bend                    86    90    88               118.43553
  274 Bend                    86    90    93               120.72427
  275 Bend                    88    85    89               119.95009
  276 Bend                    88    90    93               120.83774
  277 Bend                    90    86    91               119.76591
  278 Bend                    90    88    92               120.05109
  279 Bend                    95    94    96               107.77749
  280 Bend                    95    94    97               106.91561
  281 Bend                    96    94    97               108.33140
  282 Torsion                  1     3     4     5        -163.80525
  283 Torsion                  1     3     4     6          26.78530
  284 Torsion                  1     3    71    83          99.25437
  285 Torsion                  1     3    71    94         -57.38560
  286 Torsion                  1    77    76    73         178.28113
  287 Torsion                  1    77    76    79          -1.47606
  288 Torsion                  1    77    78    75        -178.29446
  289 Torsion                  1    77    78    80           2.69054
  290 Torsion                  2     1     3     4         -90.24790
  291 Torsion                  2     1     3    71          84.05832
  292 Torsion                  2     1    77    76          10.66922
  293 Torsion                  2     1    77    78        -169.93032
  294 Torsion                  3     1    77    76        -174.29806
  295 Torsion                  3     1    77    78           5.10240
  296 Torsion                  3     4     5     7        -172.89006
  297 Torsion                  3     4     5     8           9.62289
  298 Torsion                  3     4     6     9         165.93788
  299 Torsion                  3     4     6    10         -11.10613
  300 Torsion                  3    71    83    84        -147.51956
  301 Torsion                  3    71    83    85          34.00317
  302 Torsion                  3    71    94    95          93.82113
  303 Torsion                  3    71    94    96        -144.76381
  304 Torsion                  3    71    94    97         -25.42709
  305 Torsion                  4     3     1    77          94.70308
  306 Torsion                  4     3    71    83        -100.27732
  307 Torsion                  4     3    71    94         103.08272
  308 Torsion                  4     5     7     9           4.66544
  309 Torsion                  4     5     7    11         124.76261
  310 Torsion                  4     5     7    12        -115.35497
  311 Torsion                  4     5     8    13         -84.83871
  312 Torsion                  4     5     8    14          95.60020
  313 Torsion                  4     6     9     7           6.82348
  314 Torsion                  4     6     9    15        -113.10915
  315 Torsion                  4     6     9    16         127.58186
  316 Torsion                  4     6    10    17         -98.71319
  317 Torsion                  4     6    10    18          82.46014
  318 Torsion                  5     4     3    71          36.24275
  319 Torsion                  5     4     6     9          -4.14360
  320 Torsion                  5     4     6    10         178.81239
  321 Torsion                  5     7     9     6          -6.31308
  322 Torsion                  5     7     9    15         111.69724
  323 Torsion                  5     7     9    16        -125.33764
  324 Torsion                  5     8    13    19         179.03483
  325 Torsion                  5     8    13    20          -3.20396
  326 Torsion                  5     8    14    21         179.73687
  327 Torsion                  5     8    14    22          -0.55768
  328 Torsion                  6     4     3    71        -133.16670
  329 Torsion                  6     4     5     7          -0.63525
  330 Torsion                  6     4     5     8        -178.12230
  331 Torsion                  6     9     7    11        -124.69526
  332 Torsion                  6     9     7    12         112.26110
  333 Torsion                  6    10    17    23         179.57496
  334 Torsion                  6    10    17    24          -2.73469
  335 Torsion                  6    10    18    25        -179.85806
  336 Torsion                  6    10    18    26           1.16216
  337 Torsion                  7     5     8    13          97.87646
  338 Torsion                  7     5     8    14         -81.68462
  339 Torsion                  7     9     6    10        -175.95215
  340 Torsion                  8     5     7     9        -177.82354
  341 Torsion                  8     5     7    11         -57.72637
  342 Torsion                  8     5     7    12          62.15605
  343 Torsion                  8    13    19    27           1.40604
  344 Torsion                  8    13    19    28        -178.57932
  345 Torsion                  8    13    20    29        -107.13719
  346 Torsion                  8    13    20    30         128.57786
  347 Torsion                  8    13    20    31          10.27099
  348 Torsion                  8    14    21    27           1.09023
  349 Torsion                  8    14    21    32         179.51023
  350 Torsion                  8    14    22    33        -126.56739
  351 Torsion                  8    14    22    34         109.65128
  352 Torsion                  8    14    22    35          -8.91464
  353 Torsion                  9     6    10    17          84.42763
  354 Torsion                  9     6    10    18         -94.39904
  355 Torsion                 10     6     9    15          64.11521
  356 Torsion                 10     6     9    16         -55.19377
  357 Torsion                 10    17    23    36           0.65217
  358 Torsion                 10    17    23    37        -179.32929
  359 Torsion                 10    17    24    38        -109.15847
  360 Torsion                 10    17    24    39         127.03856
  361 Torsion                 10    17    24    40           8.87958
  362 Torsion                 10    18    25    36          -0.10738
  363 Torsion                 10    18    25    41         178.77112
  364 Torsion                 10    18    26    42        -133.21203
  365 Torsion                 10    18    26    43         102.85917
  366 Torsion                 10    18    26    44         -15.13445
  367 Torsion                 11     7     9    15          -6.68495
  368 Torsion                 11     7     9    16         116.28018
  369 Torsion                 12     7     9    15        -129.72858
  370 Torsion                 12     7     9    16          -6.76346
  371 Torsion                 13     8    14    21           0.19107
  372 Torsion                 13     8    14    22         179.89652
  373 Torsion                 13    19    27    21          -0.18235
  374 Torsion                 13    19    27    45        -179.50660
  375 Torsion                 13    20    29    46          56.37634
  376 Torsion                 13    20    29    47         -63.38727
  377 Torsion                 13    20    29    48         177.06090
  378 Torsion                 13    20    30    49         -54.28573
  379 Torsion                 13    20    30    50        -174.79230
  380 Torsion                 13    20    30    51          66.17649
  381 Torsion                 14     8    13    19          -1.41974
  382 Torsion                 14     8    13    20         176.34148
  383 Torsion                 14    21    27    19          -1.11063
  384 Torsion                 14    21    27    45         178.21352
  385 Torsion                 14    22    33    52          52.73777
  386 Torsion                 14    22    33    53         -67.68036
  387 Torsion                 14    22    33    54         172.94420
  388 Torsion                 14    22    34    55         -56.13598
  389 Torsion                 14    22    34    56        -177.07972
  390 Torsion                 14    22    34    57          63.45268
  391 Torsion                 17    10    18    25           1.36974
  392 Torsion                 17    10    18    26        -177.61003
  393 Torsion                 17    23    36    25           0.54784
  394 Torsion                 17    23    36    58        -179.49622
  395 Torsion                 17    24    38    59          55.00681
  396 Torsion                 17    24    38    60         -64.58737
  397 Torsion                 17    24    38    61         176.07873
  398 Torsion                 17    24    39    62         -57.32993
  399 Torsion                 17    24    39    63        -177.56540
  400 Torsion                 17    24    39    64          63.32777
  401 Torsion                 18    10    17    23          -1.63947
  402 Torsion                 18    10    17    24         176.05088
  403 Torsion                 18    25    36    23          -0.83140
  404 Torsion                 18    25    36    58         179.21266
  405 Torsion                 18    26    42    65          51.44461
  406 Torsion                 18    26    42    66         -69.12229
  407 Torsion                 18    26    42    67         172.18191
  408 Torsion                 18    26    43    68         -56.38216
  409 Torsion                 18    26    43    69        -177.39692
  410 Torsion                 18    26    43    70          63.24803
  411 Torsion                 19    13    20    29          70.57209
  412 Torsion                 19    13    20    30         -53.71285
  413 Torsion                 19    13    20    31        -172.01972
  414 Torsion                 19    27    21    32        -179.53111
  415 Torsion                 20    13    19    27        -176.40034
  416 Torsion                 20    13    19    28           3.61430
  417 Torsion                 21    14    22    33          53.13153
  418 Torsion                 21    14    22    34         -70.64980
  419 Torsion                 21    14    22    35         170.78428
  420 Torsion                 21    27    19    28         179.80300
  421 Torsion                 22    14    21    27        -178.62051
  422 Torsion                 22    14    21    32          -0.20051
  423 Torsion                 23    17    24    38          68.47875
  424 Torsion                 23    17    24    39         -55.32421
  425 Torsion                 23    17    24    40        -173.48320
  426 Torsion                 23    36    25    41        -179.71005
  427 Torsion                 24    17    23    36        -177.08647
  428 Torsion                 24    17    23    37           2.93207
  429 Torsion                 25    18    26    42          47.83577
  430 Torsion                 25    18    26    43         -76.09304
  431 Torsion                 25    18    26    44         165.91335
  432 Torsion                 25    36    23    37        -179.47071
  433 Torsion                 26    18    25    36         178.88896
  434 Torsion                 26    18    25    41          -2.23254
  435 Torsion                 28    19    27    45           0.47875
  436 Torsion                 29    20    30    49        -177.93981
  437 Torsion                 29    20    30    50          61.55361
  438 Torsion                 29    20    30    51         -57.47760
  439 Torsion                 30    20    29    46        -178.61866
  440 Torsion                 30    20    29    47          61.61773
  441 Torsion                 30    20    29    48         -57.93410
  442 Torsion                 31    20    29    46         -61.09103
  443 Torsion                 31    20    29    47         179.14535
  444 Torsion                 31    20    29    48          59.59352
  445 Torsion                 31    20    30    49          64.30137
  446 Torsion                 31    20    30    50         -56.20520
  447 Torsion                 31    20    30    51        -175.23641
  448 Torsion                 32    21    27    45          -0.20695
  449 Torsion                 33    22    34    55         179.36895
  450 Torsion                 33    22    34    56          58.42521
  451 Torsion                 33    22    34    57         -61.04239
  452 Torsion                 34    22    33    52         176.63971
  453 Torsion                 34    22    33    53          56.22158
  454 Torsion                 34    22    33    54         -63.15386
  455 Torsion                 35    22    33    52         -65.36493
  456 Torsion                 35    22    33    53         174.21694
  457 Torsion                 35    22    33    54          54.84150
  458 Torsion                 35    22    34    55          62.13433
  459 Torsion                 35    22    34    56         -58.80941
  460 Torsion                 35    22    34    57        -178.27700
  461 Torsion                 37    23    36    58           0.48522
  462 Torsion                 38    24    39    62         178.88663
  463 Torsion                 38    24    39    63          58.65115
  464 Torsion                 38    24    39    64         -60.45568
  465 Torsion                 39    24    38    59        -179.85164
  466 Torsion                 39    24    38    60          60.55418
  467 Torsion                 39    24    38    61         -58.77973
  468 Torsion                 40    24    38    59         -62.87652
  469 Torsion                 40    24    38    60         177.52930
  470 Torsion                 40    24    38    61          58.19539
  471 Torsion                 40    24    39    62          61.28002
  472 Torsion                 40    24    39    63         -58.95545
  473 Torsion                 40    24    39    64        -178.06228
  474 Torsion                 41    25    36    58           0.33401
  475 Torsion                 42    26    43    68         178.43123
  476 Torsion                 42    26    43    69          57.41647
  477 Torsion                 42    26    43    70         -61.93859
  478 Torsion                 43    26    42    65         175.27039
  479 Torsion                 43    26    42    66          54.70349
  480 Torsion                 43    26    42    67         -63.99231
  481 Torsion                 44    26    42    65         -66.99558
  482 Torsion                 44    26    42    66         172.43752
  483 Torsion                 44    26    42    67          53.74171
  484 Torsion                 44    26    43    68          61.34484
  485 Torsion                 44    26    43    69         -59.66993
  486 Torsion                 44    26    43    70        -179.02498
  487 Torsion                 71     3     1    77         -90.99070
  488 Torsion                 71    83    84    86        -178.35185
  489 Torsion                 71    83    84    87           2.22467
  490 Torsion                 71    83    85    88         178.34207
  491 Torsion                 71    83    85    89           0.61724
  492 Torsion                 72    73    76    77           0.19968
  493 Torsion                 72    73    76    79         179.94884
  494 Torsion                 72    75    78    77          -0.14709
  495 Torsion                 72    75    78    80         178.85007
  496 Torsion                 73    72    75    74         179.02859
  497 Torsion                 73    72    75    78          -0.78254
  498 Torsion                 73    76    77    78          -1.12584
  499 Torsion                 74    75    72    81          -0.57039
  500 Torsion                 74    75    78    77        -179.95844
  501 Torsion                 74    75    78    80          -0.96127
  502 Torsion                 75    72    73    76           0.75613
  503 Torsion                 75    72    73    82        -179.18278
  504 Torsion                 75    78    77    76           1.10059
  505 Torsion                 76    73    72    81        -179.64451
  506 Torsion                 76    77    78    80        -177.91441
  507 Torsion                 77    76    73    82        -179.86147
  508 Torsion                 78    75    72    81         179.61848
  509 Torsion                 78    77    76    79         179.11697
  510 Torsion                 79    76    73    82          -0.11232
  511 Torsion                 81    72    73    82           0.41657
  512 Torsion                 83    71    94    95         -64.17026
  513 Torsion                 83    71    94    96          57.24480
  514 Torsion                 83    71    94    97         176.58152
  515 Torsion                 83    84    86    90           0.13511
  516 Torsion                 83    84    86    91        -179.76729
  517 Torsion                 83    85    88    90           0.03714
  518 Torsion                 83    85    88    92        -178.71469
  519 Torsion                 84    83    71    94           9.70057
  520 Torsion                 84    83    85    88          -0.24092
  521 Torsion                 84    83    85    89        -177.96576
  522 Torsion                 84    86    90    88          -0.34127
  523 Torsion                 84    86    90    93         179.09271
  524 Torsion                 85    83    71    94        -168.77670
  525 Torsion                 85    83    84    86           0.15538
  526 Torsion                 85    83    84    87        -179.26810
  527 Torsion                 85    88    90    86           0.25524
  528 Torsion                 85    88    90    93        -179.17807
  529 Torsion                 86    90    88    92         178.99769
  530 Torsion                 87    84    86    90         179.56597
  531 Torsion                 87    84    86    91          -0.33643
  532 Torsion                 88    90    86    91         179.56028
  533 Torsion                 89    85    88    90         177.72446
  534 Torsion                 89    85    88    92          -1.02738
  535 Torsion                 91    86    90    93          -1.00575
  536 Torsion                 92    88    90    93          -0.43561


            XYZ format geometry
            -------------------
    97
 geometry
 C                     1.40255563     0.84241374    -1.14369636
 O                     1.29879029     1.60238628    -2.07699382
 Ni                    0.09492724    -0.40889998    -0.83517504
 C                    -1.10355847     0.49969064     0.32309951
 N                    -1.98638210    -0.26234511     0.99021034
 N                    -1.43181191     1.77327695     0.54521422
 C                    -2.98894270     0.49591183     1.73917396
 C                    -1.92646642    -1.68965271     1.01829189
 C                    -2.66019905     1.93503667     1.33211895
 C                    -0.73843301     2.91836410     0.04203789
 H                    -3.99487117     0.19145945     1.44595681
 H                    -2.87906745     0.32550871     2.81234912
 C                    -2.51604621    -2.41249546    -0.02510729
 C                    -1.28730274    -2.31798943     2.09469417
 H                    -3.44011990     2.38432025     0.71339490
 H                    -2.48351720     2.58932746     2.18564989
 C                     0.16503310     3.56692489     0.88920930
 C                    -1.00237120     3.36090243    -1.25628074
 C                    -2.42564195    -3.80048825     0.01599891
 C                    -3.27756460    -1.73176693    -1.14679938
 C                    -1.24503713    -3.70652722     2.10549127
 C                    -0.64891422    -1.52713114     3.22015744
 C                     0.84123125     4.67359752     0.38887876
 C                     0.37903635     3.12986377     2.32724869
 C                    -0.30764140     4.47418195    -1.71142527
 C                    -2.02442515     2.67810792    -2.14461181
 C                    -1.79913743    -4.44157309     1.06975258
 H                    -2.85158897    -4.38647893    -0.78843047
 C                    -4.78092999    -1.97689085    -0.98228936
 C                    -2.79582739    -2.17439189    -2.52856174
 H                    -3.10311212    -0.65647361    -1.06772101
 H                    -0.75063795    -4.22040428     2.92077244
 C                     0.80901737    -1.93228163     3.44326332
 C                    -1.45306162    -1.67881287     4.51438912
 H                    -0.65086688    -0.47285978     2.93389527
 C                     0.61115621     5.11970214    -0.90150293
 H                     1.55616607     5.19197286     1.01606838
 C                    -0.21180187     4.16453827     3.29116982
 C                     1.85068921     2.87897019     2.65393336
 H                    -0.15001230     2.18491825     2.47441866
 H                    -0.47361636     4.83134640    -2.71967411
 C                    -1.49847163     2.41989327    -3.55669978
 C                    -3.31667376     3.49991273    -2.19616151
 H                    -2.25469939     1.70599735    -1.70298479
 H                    -1.73197260    -5.52184787     1.07963969
 H                    -5.13912540    -1.64133875    -0.00671749
 H                    -5.00879813    -3.04139404    -1.06912423
 H                    -5.34190314    -1.44809918    -1.75489079
 H                    -1.71864701    -2.03313796    -2.63199143
 H                    -3.30287853    -1.59584512    -3.30320664
 H                    -3.01808410    -3.22840183    -2.70721730
 H                     1.37959514    -1.88544811     2.51603216
 H                     0.88284627    -2.94989134     3.83164733
 H                     1.27843810    -1.26571984     4.16910858
 H                    -2.49562400    -1.38416387     4.38098687
 H                    -1.02133347    -1.06814315     5.30944336
 H                    -1.44714396    -2.71863983     4.84807600
 H                     1.15207750     5.97829386    -1.27891908
 H                    -1.26512536     4.36231756     3.08288160
 H                     0.32113861     5.11378361     3.20537735
 H                    -0.12223253     3.82214540     4.32405056
 H                     2.28357271     2.13154367     1.99163131
 H                     1.95018606     2.52638043     3.68278792
 H                     2.43845210     3.79429663     2.56084673
 H                    -0.53812072     1.90882835    -3.52079098
 H                    -1.37153984     3.35311519    -4.10975081
 H                    -2.21225488     1.80777272    -4.11203510
 H                    -3.73009388     3.67616113    -1.20114501
 H                    -4.07199062     2.98981941    -2.79738955
 H                    -3.12724197     4.47549420    -2.64952072
 N                     0.82095347    -1.59389789    -2.03713297
 C                     4.93013685     0.92305628     1.27432615
 C                     4.71212640     1.91073276     0.31950420
 H                     4.19567005    -0.88974519     2.16076211
 C                     4.01807029    -0.11229724     1.42824259
 C                     3.57476510     1.87090898    -0.46965272
 C                     2.64902502     0.84437868    -0.30318611
 C                     2.87889510    -0.14999254     0.63694541
 H                     3.37755558     2.62577292    -1.22028124
 H                     2.16549028    -0.95987336     0.73009567
 H                     5.81713282     0.95895643     1.89444672
 H                     5.43242927     2.70940206     0.19337349
 C                     1.61404180    -2.65047514    -1.62781600
 C                     2.67999837    -3.16892481    -2.38120300
 C                     1.33557635    -3.27955873    -0.39940086
 C                     3.41440014    -4.25525019    -1.92339426
 H                     2.94706103    -2.71894314    -3.32660441
 C                     2.07023522    -4.35986328     0.04624880
 H                     0.49551940    -2.91792644     0.18430369
 C                     3.12167343    -4.86542474    -0.71428268
 H                     4.23270372    -4.62653686    -2.52923205
 H                     1.80799484    -4.82744514     0.98915235
 H                     3.69120268    -5.72027819    -0.37429482
 C                     1.00162580    -1.16281637    -3.41108914
 H                     2.00194066    -0.75835368    -3.61475190
 H                     0.82836904    -1.99341606    -4.10610967
 H                     0.28803058    -0.37216278    -3.63764578

 ==============================================================================
                                internuclear distances
 ------------------------------------------------------------------------------
       center one      |      center two      | atomic units |  angstroms
 ------------------------------------------------------------------------------
    2 O                |   1 C                |     2.28287  |     1.20804
    3 Ni               |   1 C                |     3.46952  |     1.83599
    4 C                |   3 Ni               |     3.58725  |     1.89829
    5 N                |   4 C                |     2.53893  |     1.34354
    6 N                |   4 C                |     2.52058  |     1.33383
    7 C                |   5 N                |     2.76509  |     1.46323
    8 C                |   5 N                |     2.70012  |     1.42884
    9 C                |   6 N                |     2.77366  |     1.46776
    9 C                |   7 C                |     2.89372  |     1.53129
   10 C                |   6 N                |     2.70250  |     1.43010
   11 H                |   7 C                |     2.06193  |     1.09113
   12 H                |   7 C                |     2.06388  |     1.09216
   13 C                |   8 C                |     2.64480  |     1.39957
   14 C                |   8 C                |     2.64695  |     1.40071
   15 H                |   9 C                |     2.06400  |     1.09222
   16 H                |   9 C                |     2.05957  |     1.08988
   17 C                |  10 C                |     2.64196  |     1.39806
   18 C                |  10 C                |     2.63963  |     1.39683
   19 C                |  13 C                |     2.62963  |     1.39154
   20 C                |  13 C                |     2.86684  |     1.51707
   21 C                |  14 C                |     2.62525  |     1.38922
   22 C                |  14 C                |     2.86570  |     1.51646
   23 C                |  17 C                |     2.62685  |     1.39007
   24 C                |  17 C                |     2.86889  |     1.51815
   25 C                |  18 C                |     2.62475  |     1.38896
   26 C                |  18 C                |     2.86587  |     1.51655
   27 C                |  19 C                |     2.61431  |     1.38344
   27 C                |  21 C                |     2.61853  |     1.38567
   28 H                |  19 C                |     2.04573  |     1.08255
   29 C                |  20 C                |     2.89520  |     1.53208
   30 C                |  20 C                |     2.88903  |     1.52881
   31 H                |  20 C                |     2.06400  |     1.09222
   32 H                |  21 C                |     2.04683  |     1.08314
   33 C                |  22 C                |     2.89041  |     1.52954
   34 C                |  22 C                |     2.89362  |     1.53124
   35 H                |  22 C                |     2.06442  |     1.09245
   36 C                |  23 C                |     2.61645  |     1.38457
   36 C                |  25 C                |     2.61634  |     1.38451
   37 H                |  23 C                |     2.04685  |     1.08315
   38 C                |  24 C                |     2.89615  |     1.53257
   39 C                |  24 C                |     2.88790  |     1.52821
   40 H                |  24 C                |     2.06532  |     1.09292
   41 H                |  25 C                |     2.04552  |     1.08244
   42 C                |  26 C                |     2.88905  |     1.52882
   43 C                |  26 C                |     2.89562  |     1.53229
   44 H                |  26 C                |     2.06410  |     1.09227
   45 H                |  27 C                |     2.04545  |     1.08241
   46 H                |  29 C                |     2.06373  |     1.09208
   47 H                |  29 C                |     2.06373  |     1.09208
   48 H                |  29 C                |     2.06251  |     1.09143
   49 H                |  30 C                |     2.06229  |     1.09131
   50 H                |  30 C                |     2.06309  |     1.09174
   51 H                |  30 C                |     2.06340  |     1.09190
   52 H                |  33 C                |     2.05929  |     1.08973
   53 H                |  33 C                |     2.06303  |     1.09171
   54 H                |  33 C                |     2.06276  |     1.09156
   55 H                |  34 C                |     2.06279  |     1.09158
   56 H                |  34 C                |     2.06268  |     1.09152
   57 H                |  34 C                |     2.06372  |     1.09207
   58 H                |  36 C                |     2.04599  |     1.08269
   59 H                |  38 C                |     2.06317  |     1.09178
   60 H                |  38 C                |     2.06357  |     1.09199
   61 H                |  38 C                |     2.06326  |     1.09183
   62 H                |  39 C                |     2.05683  |     1.08843
   63 H                |  39 C                |     2.06384  |     1.09214
   64 H                |  39 C                |     2.06314  |     1.09177
   65 H                |  42 C                |     2.05690  |     1.08846
   66 H                |  42 C                |     2.06394  |     1.09219
   67 H                |  42 C                |     2.06368  |     1.09205
   68 H                |  43 C                |     2.06321  |     1.09180
   69 H                |  43 C                |     2.06333  |     1.09187
   70 H                |  43 C                |     2.06420  |     1.09233
   71 N                |   3 Ni               |     3.47218  |     1.83740
   73 C                |  72 C                |     2.62850  |     1.39094
   75 C                |  72 C                |     2.62360  |     1.38835
   75 C                |  74 H                |     2.04628  |     1.08284
   76 C                |  73 C                |     2.61708  |     1.38490
   77 C                |   1 C                |     2.84097  |     1.50338
   77 C                |  76 C                |     2.63105  |     1.39229
   78 C                |  75 C                |     2.62209  |     1.38755
   78 C                |  77 C                |     2.62220  |     1.38761
   79 H                |  76 C                |     2.04593  |     1.08266
   80 H                |  78 C                |     2.04713  |     1.08330
   81 H                |  72 C                |     2.04632  |     1.08287
   82 H                |  73 C                |     2.04634  |     1.08287
   83 C                |  71 N                |     2.61362  |     1.38307
   84 C                |  83 C                |     2.65414  |     1.40451
   85 C                |  83 C                |     2.66062  |     1.40794
   86 C                |  84 C                |     2.62464  |     1.38890
   87 H                |  84 C                |     2.04194  |     1.08055
   88 C                |  85 C                |     2.60850  |     1.38036
   89 H                |  85 C                |     2.05032  |     1.08498
   90 C                |  86 C                |     2.61845  |     1.38562
   90 C                |  88 C                |     2.63176  |     1.39267
   91 H                |  86 C                |     2.04799  |     1.08375
   92 H                |  88 C                |     2.04970  |     1.08465
   93 H                |  90 C                |     2.04469  |     1.08200
   94 C                |  71 N                |     2.74253  |     1.45129
   95 H                |  94 C                |     2.07500  |     1.09804
   96 H                |  94 C                |     2.07265  |     1.09680
   97 H                |  94 C                |     2.05770  |     1.08889
 ------------------------------------------------------------------------------
                         number of included internuclear distances:        101
 ==============================================================================



 ==============================================================================
                                 internuclear angles
 ------------------------------------------------------------------------------
        center 1       |       center 2       |       center 3       |  degrees
 ------------------------------------------------------------------------------
    2 O                |   1 C                |   3 Ni               |   119.83
    2 O                |   1 C                |  77 C                |   120.15
    3 Ni               |   1 C                |  77 C                |   119.83
    1 C                |   3 Ni               |   4 C                |   103.06
    1 C                |   3 Ni               |  71 N                |    92.76
    4 C                |   3 Ni               |  71 N                |   163.20
    3 Ni               |   4 C                |   5 N                |   116.51
    3 Ni               |   4 C                |   6 N                |   135.56
    5 N                |   4 C                |   6 N                |   107.29
    4 C                |   5 N                |   7 C                |   114.23
    4 C                |   5 N                |   8 C                |   123.28
    7 C                |   5 N                |   8 C                |   122.43
    4 C                |   6 N                |   9 C                |   113.61
    4 C                |   6 N                |  10 C                |   125.92
    9 C                |   6 N                |  10 C                |   120.41
    5 N                |   7 C                |   9 C                |   101.76
    5 N                |   7 C                |  11 H                |   110.46
    5 N                |   7 C                |  12 H                |   110.68
    9 C                |   7 C                |  11 H                |   112.87
    9 C                |   7 C                |  12 H                |   112.72
   11 H                |   7 C                |  12 H                |   108.26
    5 N                |   8 C                |  13 C                |   118.92
    5 N                |   8 C                |  14 C                |   118.84
   13 C                |   8 C                |  14 C                |   122.24
    6 N                |   9 C                |   7 C                |   102.63
    6 N                |   9 C                |  15 H                |   109.83
    6 N                |   9 C                |  16 H                |   110.51
    7 C                |   9 C                |  15 H                |   112.57
    7 C                |   9 C                |  16 H                |   113.01
   15 H                |   9 C                |  16 H                |   108.21
    6 N                |  10 C                |  17 C                |   118.14
    6 N                |  10 C                |  18 C                |   119.28
   17 C                |  10 C                |  18 C                |   122.57
    8 C                |  13 C                |  19 C                |   117.76
    8 C                |  13 C                |  20 C                |   122.07
   19 C                |  13 C                |  20 C                |   120.13
    8 C                |  14 C                |  21 C                |   117.92
    8 C                |  14 C                |  22 C                |   121.90
   21 C                |  14 C                |  22 C                |   120.18
   10 C                |  17 C                |  23 C                |   117.75
   10 C                |  17 C                |  24 C                |   122.11
   23 C                |  17 C                |  24 C                |   120.10
   10 C                |  18 C                |  25 C                |   117.65
   10 C                |  18 C                |  26 C                |   121.95
   25 C                |  18 C                |  26 C                |   120.40
   13 C                |  19 C                |  27 C                |   120.94
   13 C                |  19 C                |  28 H                |   119.50
   27 C                |  19 C                |  28 H                |   119.56
   13 C                |  20 C                |  29 C                |   109.96
   13 C                |  20 C                |  30 C                |   112.34
   13 C                |  20 C                |  31 H                |   107.94
   29 C                |  20 C                |  30 C                |   111.10
   29 C                |  20 C                |  31 H                |   107.85
   30 C                |  20 C                |  31 H                |   107.47
   14 C                |  21 C                |  27 C                |   120.81
   14 C                |  21 C                |  32 H                |   119.60
   27 C                |  21 C                |  32 H                |   119.57
   14 C                |  22 C                |  33 C                |   111.80
   14 C                |  22 C                |  34 C                |   110.77
   14 C                |  22 C                |  35 H                |   107.94
   33 C                |  22 C                |  34 C                |   110.55
   33 C                |  22 C                |  35 H                |   107.19
   34 C                |  22 C                |  35 H                |   108.43
   17 C                |  23 C                |  36 C                |   120.74
   17 C                |  23 C                |  37 H                |   119.58
   36 C                |  23 C                |  37 H                |   119.68
   17 C                |  24 C                |  38 C                |   110.31
   17 C                |  24 C                |  39 C                |   112.67
   17 C                |  24 C                |  40 H                |   107.95
   38 C                |  24 C                |  39 C                |   110.34
   38 C                |  24 C                |  40 H                |   108.20
   39 C                |  24 C                |  40 H                |   107.18
   18 C                |  25 C                |  36 C                |   120.93
   18 C                |  25 C                |  41 H                |   119.54
   36 C                |  25 C                |  41 H                |   119.53
   18 C                |  26 C                |  42 C                |   112.66
   18 C                |  26 C                |  43 C                |   110.28
   18 C                |  26 C                |  44 H                |   107.81
   42 C                |  26 C                |  43 C                |   110.47
   42 C                |  26 C                |  44 H                |   107.20
   43 C                |  26 C                |  44 H                |   108.25
   19 C                |  27 C                |  21 C                |   120.31
   19 C                |  27 C                |  45 H                |   119.84
   21 C                |  27 C                |  45 H                |   119.85
   20 C                |  29 C                |  46 H                |   111.63
   20 C                |  29 C                |  47 H                |   110.62
   20 C                |  29 C                |  48 H                |   110.54
   46 H                |  29 C                |  47 H                |   107.58
   46 H                |  29 C                |  48 H                |   108.36
   47 H                |  29 C                |  48 H                |   107.98
   20 C                |  30 C                |  49 H                |   111.05
   20 C                |  30 C                |  50 H                |   109.97
   20 C                |  30 C                |  51 H                |   111.30
   49 H                |  30 C                |  50 H                |   108.82
   49 H                |  30 C                |  51 H                |   108.08
   50 H                |  30 C                |  51 H                |   107.51
   22 C                |  33 C                |  52 H                |   111.32
   22 C                |  33 C                |  53 H                |   111.30
   22 C                |  33 C                |  54 H                |   110.19
   52 H                |  33 C                |  53 H                |   107.90
   52 H                |  33 C                |  54 H                |   108.32
   53 H                |  33 C                |  54 H                |   107.67
   22 C                |  34 C                |  55 H                |   111.81
   22 C                |  34 C                |  56 H                |   110.64
   22 C                |  34 C                |  57 H                |   110.47
   55 H                |  34 C                |  56 H                |   108.41
   55 H                |  34 C                |  57 H                |   107.43
   56 H                |  34 C                |  57 H                |   107.94
   23 C                |  36 C                |  25 C                |   120.35
   23 C                |  36 C                |  58 H                |   119.83
   25 C                |  36 C                |  58 H                |   119.83
   24 C                |  38 C                |  59 H                |   111.98
   24 C                |  38 C                |  60 H                |   110.44
   24 C                |  38 C                |  61 H                |   110.59
   59 H                |  38 C                |  60 H                |   107.36
   59 H                |  38 C                |  61 H                |   108.45
   60 H                |  38 C                |  61 H                |   107.87
   24 C                |  39 C                |  62 H                |   111.45
   24 C                |  39 C                |  63 H                |   110.01
   24 C                |  39 C                |  64 H                |   111.26
   62 H                |  39 C                |  63 H                |   108.38
   62 H                |  39 C                |  64 H                |   108.04
   63 H                |  39 C                |  64 H                |   107.57
   26 C                |  42 C                |  65 H                |   110.63
   26 C                |  42 C                |  66 H                |   111.31
   26 C                |  42 C                |  67 H                |   109.85
   65 H                |  42 C                |  66 H                |   108.38
   65 H                |  42 C                |  67 H                |   109.29
   66 H                |  42 C                |  67 H                |   107.30
   26 C                |  43 C                |  68 H                |   112.04
   26 C                |  43 C                |  69 H                |   110.57
   26 C                |  43 C                |  70 H                |   110.29
   68 H                |  43 C                |  69 H                |   108.38
   68 H                |  43 C                |  70 H                |   107.44
   69 H                |  43 C                |  70 H                |   107.98
    3 Ni               |  71 N                |  83 C                |   121.71
    3 Ni               |  71 N                |  94 C                |   118.49
   83 C                |  71 N                |  94 C                |   115.83
   73 C                |  72 C                |  75 C                |   120.18
   73 C                |  72 C                |  81 H                |   119.86
   75 C                |  72 C                |  81 H                |   119.96
   72 C                |  73 C                |  76 C                |   119.96
   72 C                |  73 C                |  82 H                |   119.96
   76 C                |  73 C                |  82 H                |   120.07
   72 C                |  75 C                |  74 H                |   120.18
   72 C                |  75 C                |  78 C                |   119.76
   74 H                |  75 C                |  78 C                |   120.06
   73 C                |  76 C                |  77 C                |   119.94
   73 C                |  76 C                |  79 H                |   121.64
   77 C                |  76 C                |  79 H                |   118.41
    1 C                |  77 C                |  76 C                |   119.04
    1 C                |  77 C                |  78 C                |   121.01
   76 C                |  77 C                |  78 C                |   119.95
   75 C                |  78 C                |  77 C                |   120.19
   75 C                |  78 C                |  80 H                |   120.79
   77 C                |  78 C                |  80 H                |   119.01
   71 N                |  83 C                |  84 C                |   123.95
   71 N                |  83 C                |  85 C                |   119.09
   84 C                |  83 C                |  85 C                |   116.95
   83 C                |  84 C                |  86 C                |   120.88
   83 C                |  84 C                |  87 H                |   120.21
   86 C                |  84 C                |  87 H                |   118.91
   83 C                |  85 C                |  88 C                |   121.74
   83 C                |  85 C                |  89 H                |   118.27
   88 C                |  85 C                |  89 H                |   119.95
   84 C                |  86 C                |  90 C                |   121.36
   84 C                |  86 C                |  91 H                |   118.88
   90 C                |  86 C                |  91 H                |   119.77
   85 C                |  88 C                |  90 C                |   120.64
   85 C                |  88 C                |  92 H                |   119.30
   90 C                |  88 C                |  92 H                |   120.05
   86 C                |  90 C                |  88 C                |   118.44
   86 C                |  90 C                |  93 H                |   120.72
   88 C                |  90 C                |  93 H                |   120.84
   71 N                |  94 C                |  95 H                |   113.48
   71 N                |  94 C                |  96 H                |   110.81
   71 N                |  94 C                |  97 H                |   109.33
   95 H                |  94 C                |  96 H                |   107.78
   95 H                |  94 C                |  97 H                |   106.92
   96 H                |  94 C                |  97 H                |   108.33
 ------------------------------------------------------------------------------
                            number of included internuclear angles:        180
 ==============================================================================



                      Basis "ao basis" -> "" (cartesian)
                      -----
  C (Carbon)
  ----------
            Exponent  Coefficients 
       -------------- ---------------------------------------------------------
  1 S  1.23840169E+03  0.005457
  1 S  1.86290050E+02  0.040638
  1 S  4.22511763E+01  0.180256
  1 S  1.16765579E+01  0.463151
  1 S  3.59305065E+00  0.440872

  2 S  4.02451474E-01  1.000000

  3 S  1.30901827E-01  1.000000

  4 P  9.46809706E+00  0.038388
  4 P  2.01035451E+00  0.211170
  4 P  5.47710047E-01  0.513282

  5 P  1.52686138E-01  1.000000

  H (Hydrogen)
  ------------
            Exponent  Coefficients 
       -------------- ---------------------------------------------------------
  1 S  1.30107010E+01  0.019682
  1 S  1.96225720E+00  0.137965
  1 S  4.44537960E-01  0.478319

  2 S  1.21949620E-01  1.000000

  O (Oxygen)
  ----------
            Exponent  Coefficients 
       -------------- ---------------------------------------------------------
  1 S  2.26617678E+03 -0.005343
  1 S  3.40870102E+02 -0.039890
  1 S  7.73631352E+01 -0.178539
  1 S  2.14796449E+01 -0.464277
  1 S  6.65894331E+00 -0.443097

  2 S  8.09759757E-01  1.000000

  3 S  2.55307722E-01  1.000000

  4 P  1.77215043E+01  0.043395
  4 P  3.86355054E+00  0.230941
  4 P  1.04809209E+00  0.513753

  5 P  2.76415444E-01  1.000000

  N (Nitrogen)
  ------------
            Exponent  Coefficients 
       -------------- ---------------------------------------------------------
  1 S  1.71284159E+03 -0.005393
  1 S  2.57648127E+02 -0.040222
  1 S  5.84582459E+01 -0.179311
[...]
  ----- ------------  ---------------      ----- ------------  ---------------
   478     11.784290  84 C  s               507    -10.816823  88 C  s         
   202    -10.743434  23 C  s               220    -10.716886  25 C  s         
   157     10.364407  18 C  s               496    -10.351695  86 C  s         
   113    -10.161552  10 C  s               148      9.890390  17 C  s         
   518      9.912891  90 C  s               291      9.641208  36 C  s         

 Vector  526  Occ=0.000000D+00  E= 1.769754D+00
              MO Center= -3.3D-01, -9.4D-01, -1.0D-01, r^2= 1.6D+01
   Bfn.  Coefficient  Atom+Function         Bfn.  Coefficient  Atom+Function  
  ----- ------------  ---------------      ----- ------------  ---------------
   166     12.252499  19 C  s               184     12.117339  21 C  s         
   100    -11.690416   8 C  py              126    -11.020583  13 C  s         
    95     10.768842   8 C  s               135    -10.776119  14 C  s         
   238    -10.747143  27 C  s               132     -7.450645  13 C  pz        
   202     -7.137640  23 C  s               220     -7.126728  25 C  s         

 Vector  527  Occ=0.000000D+00  E= 1.790462D+00
              MO Center=  8.2D-01, -1.2D+00, -1.2D+00, r^2= 9.7D+00
   Bfn.  Coefficient  Atom+Function         Bfn.  Coefficient  Atom+Function  
  ----- ------------  ---------------      ----- ------------  ---------------
    22     12.827304   3 Ni s               487     -8.831900  85 C  s         
   507      7.699341  88 C  s               496      7.157258  86 C  s         
   469      7.113820  83 C  s               518     -7.012747  90 C  s         
   478     -4.958193  84 C  s               475      4.733136  83 C  pz        
   474     -4.298472  83 C  py              443      4.172393  77 C  s         

 Vector  528  Occ=0.000000D+00  E= 1.795199D+00
              MO Center=  2.3D-01,  9.1D-01, -1.0D+00, r^2= 1.0D+01
   Bfn.  Coefficient  Atom+Function         Bfn.  Coefficient  Atom+Function  
  ----- ------------  ---------------      ----- ------------  ---------------
    22     15.110393   3 Ni s               113      8.154557  10 C  s         
   220      8.175290  25 C  s               157     -7.749212  18 C  s         
   118      7.319561  10 C  py              202      7.340896  23 C  s         
   148     -6.482920  17 C  s               291     -6.485955  36 C  s         
   154      5.943432  17 C  pz              229     -5.796532  26 C  s         

 Vector  529  Occ=0.000000D+00  E= 1.913840D+00
              MO Center= -1.3D+00,  5.5D-01,  4.6D-01, r^2= 6.4D+00
   Bfn.  Coefficient  Atom+Function         Bfn.  Coefficient  Atom+Function  
  ----- ------------  ---------------      ----- ------------  ---------------
    22      8.122606   3 Ni s               100     -5.483714   8 C  py        
    73     -4.381829   5 N  py               86      4.233274   7 C  s         
   104     -4.207994   9 C  s                68      3.764211   5 N  s         
   175     -3.496866  20 C  s                23     -3.268035   3 Ni s         
    81     -3.260270   6 N  px              507     -3.111124  88 C  s         

 Vector  530  Occ=0.000000D+00  E= 1.942466D+00
              MO Center=  7.1D-01,  3.6D-01, -1.3D+00, r^2= 6.8D+00
   Bfn.  Coefficient  Atom+Function         Bfn.  Coefficient  Atom+Function  
  ----- ------------  ---------------      ----- ------------  ---------------
    22     18.369039   3 Ni s                23     -7.177723   3 Ni s         
    12     -5.586507   2 O  s               487      5.201744  85 C  s         
    54     -4.530325   3 Ni dyy              56     -4.324502   3 Ni dzz       
   113     -4.125737  10 C  s                51     -3.712163   3 Ni dxx       
   507     -3.355006  88 C  s                 8      3.058309   1 C  py        

 Vector  531  Occ=0.000000D+00  E= 2.876794D+00
              MO Center=  5.5D-02, -3.2D-01, -1.0D+00, r^2= 2.7D+00
   Bfn.  Coefficient  Atom+Function         Bfn.  Coefficient  Atom+Function  
  ----- ------------  ---------------      ----- ------------  ---------------
    22     10.711285   3 Ni s                21      5.693754   3 Ni s         
    23     -5.235946   3 Ni s                20     -3.124528   3 Ni s         
    45     -2.774502   3 Ni dxx              48     -2.776834   3 Ni dyy       
    50     -2.770079   3 Ni dzz              34      1.972063   3 Ni py        
   487      1.957404  85 C  s                56     -1.531904   3 Ni dzz       

 Vector  532  Occ=0.000000D+00  E= 3.129311D+00
              MO Center=  2.8D-01, -4.8D-01, -6.4D-01, r^2= 1.4D+00
   Bfn.  Coefficient  Atom+Function         Bfn.  Coefficient  Atom+Function  
  ----- ------------  ---------------      ----- ------------  ---------------
    22      6.277154   3 Ni s                21      1.931490   3 Ni s         
   487      1.546770  85 C  s                20     -1.353255   3 Ni s         
    23     -1.327367   3 Ni s               462     -1.307926  80 H  s         
   447      1.292277  77 C  px               33      1.262619   3 Ni px        
    51     -1.186003   3 Ni dxx              50     -1.167420   3 Ni dzz       

 Vector  533  Occ=0.000000D+00  E= 3.284945D+00
              MO Center=  2.0D-01, -3.6D-01, -8.7D-01, r^2= 1.3D+00
   Bfn.  Coefficient  Atom+Function         Bfn.  Coefficient  Atom+Function  
  ----- ------------  ---------------      ----- ------------  ---------------
   448     -2.358677  77 C  py              434      2.299603  76 C  s         
   452     -1.793595  78 C  s                 8      1.758702   1 C  py        
    22      1.615963   3 Ni s                 3     -1.272428   1 C  s         
    31      1.274540   3 Ni py              447     -1.237613  77 C  px        
     7      1.108291   1 C  px              449      1.100079  77 C  pz        

 Vector  534  Occ=0.000000D+00  E= 3.369214D+00
              MO Center=  8.3D-02, -4.6D-01, -8.2D-01, r^2= 1.4D+00
   Bfn.  Coefficient  Atom+Function         Bfn.  Coefficient  Atom+Function  
  ----- ------------  ---------------      ----- ------------  ---------------
   487      1.735105  85 C  s               475     -1.627886  83 C  pz        
    64      1.579208   4 C  py               77     -1.315082   6 N  s         
    63     -1.248446   4 C  px              478     -1.189239  84 C  s         
    30     -1.035739   3 Ni px              473      1.001331  83 C  px        
    32      0.993130   3 Ni pz               35      0.974537   3 Ni pz        

 Vector  535  Occ=0.000000D+00  E= 4.761990D+00
              MO Center=  9.5D-02, -4.0D-01, -8.3D-01, r^2= 6.3D-01
   Bfn.  Coefficient  Atom+Function         Bfn.  Coefficient  Atom+Function  
  ----- ------------  ---------------      ----- ------------  ---------------
    46      1.046588   3 Ni dxy              45     -0.926210   3 Ni dxx       
    49      0.859203   3 Ni dyz              22      0.837952   3 Ni s         
    40     -0.838489   3 Ni dxy             487      0.737068  85 C  s         
    43     -0.683501   3 Ni dyz              39      0.658990   3 Ni dxx       
    59     -0.625603   4 C  s                50      0.601022   3 Ni dzz       

 Vector  536  Occ=0.000000D+00  E= 4.803310D+00
              MO Center=  8.9D-02, -4.3D-01, -8.2D-01, r^2= 6.8D-01
   Bfn.  Coefficient  Atom+Function         Bfn.  Coefficient  Atom+Function  
  ----- ------------  ---------------      ----- ------------  ---------------
    95      1.391778   8 C  s               443      1.340047  77 C  s         
    49     -1.222415   3 Ni dyz               3     -1.114949   1 C  s         
     9     -1.097294   1 C  pz              447     -0.975142  77 C  px        
    43      0.963542   3 Ni dyz             135     -0.910148  14 C  s         
    47     -0.901917   3 Ni dxz               7     -0.836139   1 C  px        

 Vector  537  Occ=0.000000D+00  E= 4.828686D+00
              MO Center=  1.0D-01, -4.0D-01, -8.5D-01, r^2= 6.6D-01
   Bfn.  Coefficient  Atom+Function         Bfn.  Coefficient  Atom+Function  
  ----- ------------  ---------------      ----- ------------  ---------------
    64      1.276264   4 C  py               48      1.149643   3 Ni dyy       
    22     -1.095633   3 Ni s                68      1.070176   5 N  s         
    77     -0.911407   6 N  s                 3      0.860431   1 C  s         
    56      0.817186   3 Ni dzz              42     -0.802694   3 Ni dyy       
    50     -0.800978   3 Ni dzz              33     -0.743250   3 Ni px        

 Vector  538  Occ=0.000000D+00  E= 4.852139D+00
              MO Center=  7.2D-02, -4.3D-01, -8.3D-01, r^2= 6.8D-01
   Bfn.  Coefficient  Atom+Function         Bfn.  Coefficient  Atom+Function  
  ----- ------------  ---------------      ----- ------------  ---------------
    22      4.124547   3 Ni s                47      1.518846   3 Ni dxz       
     3     -1.364219   1 C  s                46     -1.291082   3 Ni dxy       
    34      1.170855   3 Ni py               41     -1.176607   3 Ni dxz       
    53     -1.075559   3 Ni dxz              40      1.002860   3 Ni dxy       
    52      0.898124   3 Ni dxy              56     -0.841227   3 Ni dzz       

 Vector  539  Occ=0.000000D+00  E= 5.049139D+00
              MO Center=  1.0D-01, -4.1D-01, -8.4D-01, r^2= 6.9D-01
   Bfn.  Coefficient  Atom+Function         Bfn.  Coefficient  Atom+Function  
  ----- ------------  ---------------      ----- ------------  ---------------
    22      1.933426   3 Ni s                49     -1.411330   3 Ni dyz       
    55      1.367868   3 Ni dyz              46      1.348865   3 Ni dxy       
    52     -1.306032   3 Ni dxy              47      1.085448   3 Ni dxz       
    53     -1.043622   3 Ni dxz              43      1.029739   3 Ni dyz       
    40     -0.982736   3 Ni dxy              63     -0.901921   4 C  px        

 Vector  540  Occ=0.000000D+00  E= 1.021827D+01
              MO Center=  1.0D-01, -4.2D-01, -8.4D-01, r^2= 6.6D-01
   Bfn.  Coefficient  Atom+Function         Bfn.  Coefficient  Atom+Function  
  ----- ------------  ---------------      ----- ------------  ---------------
    21     27.782153   3 Ni s                20    -17.542175   3 Ni s         
    45     -7.594725   3 Ni dxx              48     -7.588499   3 Ni dyy       
    50     -7.548824   3 Ni dzz              22      4.726089   3 Ni s         
    23     -2.006517   3 Ni s                19      1.510342   3 Ni s         
    56     -0.741165   3 Ni dzz             487      0.729327  85 C  s         

 Vector  541  Occ=0.000000D+00  E= 4.990167D+01
              MO Center=  9.6D-02, -4.1D-01, -8.4D-01, r^2= 1.1D-01
   Bfn.  Coefficient  Atom+Function         Bfn.  Coefficient  Atom+Function  
  ----- ------------  ---------------      ----- ------------  ---------------
    20     21.436159   3 Ni s                21    -20.728045   3 Ni s         
    45      5.168279   3 Ni dxx              48      5.165593   3 Ni dyy       
    50      5.156957   3 Ni dzz              19     -4.353267   3 Ni s         
    39     -2.734766   3 Ni dxx              42     -2.733964   3 Ni dyy       
    44     -2.731049   3 Ni dzz              22     -2.037311   3 Ni s         

 Vector  542  Occ=0.000000D+00  E= 1.173849D+02
              MO Center=  9.5D-02, -4.1D-01, -8.4D-01, r^2= 2.9D-02
   Bfn.  Coefficient  Atom+Function         Bfn.  Coefficient  Atom+Function  
  ----- ------------  ---------------      ----- ------------  ---------------
    26      0.835368   3 Ni pz               24      0.531488   3 Ni px        
    25     -0.392197   3 Ni py               29     -0.316845   3 Ni pz        
    27     -0.201518   3 Ni px               22     -0.190741   3 Ni s         
    32      0.165221   3 Ni pz               28      0.148772   3 Ni py        
    30      0.105258   3 Ni px               33     -0.092311   3 Ni px        

 Vector  543  Occ=0.000000D+00  E= 1.175614D+02
              MO Center=  9.6D-02, -4.1D-01, -8.4D-01, r^2= 3.1D-02
   Bfn.  Coefficient  Atom+Function         Bfn.  Coefficient  Atom+Function  
  ----- ------------  ---------------      ----- ------------  ---------------
    25      0.931717   3 Ni py               24      0.504029   3 Ni px        
    28     -0.359969   3 Ni py               31      0.199248   3 Ni py        
   448     -0.199510  77 C  py               27     -0.194716   3 Ni px        
   434      0.190969  76 C  s               452     -0.159300  78 C  s         
     8      0.150656   1 C  py               22      0.142029   3 Ni s         

 Vector  544  Occ=0.000000D+00  E= 1.175927D+02
              MO Center=  9.5D-02, -4.1D-01, -8.3D-01, r^2= 3.1D-02
   Bfn.  Coefficient  Atom+Function         Bfn.  Coefficient  Atom+Function  
  ----- ------------  ---------------      ----- ------------  ---------------
    24      0.773996   3 Ni px               26     -0.650753   3 Ni pz        
    25     -0.337168   3 Ni py               27     -0.300565   3 Ni px        
    29      0.252758   3 Ni pz               30      0.168896   3 Ni px        
    32     -0.141927   3 Ni pz               64     -0.132280   4 C  py        
    28      0.130895   3 Ni py              487     -0.119013  85 C  s         

 Vector  545  Occ=0.000000D+00  E= 6.766357D+02
              MO Center=  9.5D-02, -4.1D-01, -8.4D-01, r^2= 2.3D-02
   Bfn.  Coefficient  Atom+Function         Bfn.  Coefficient  Atom+Function  
  ----- ------------  ---------------      ----- ------------  ---------------
    20     28.866919   3 Ni s                21    -15.337575   3 Ni s         
    39     -7.285658   3 Ni dxx              42     -7.285556   3 Ni dyy       
    44     -7.286348   3 Ni dzz              19     -4.275381   3 Ni s         
    45      3.403578   3 Ni dxx              48      3.403193   3 Ni dyy       
    50      3.405909   3 Ni dzz              54      0.116046   3 Ni dyy       


 center of mass
 --------------
 x =   0.05500536 y =  -0.02030955 z =  -0.03704353

 moments of inertia (a.u.)
 ------------------
       25571.427351742168           0.000000000001           0.000000000005
           0.000000000001       20551.674120435480           0.000000000000
           0.000000000005           0.000000000000       29227.346879398767

     Multipole analysis of the density
     ---------------------------------

     L   x y z        total         alpha         beta         nuclear
     -   - - -        -----         -----         ----         -------
     0   0 0 0     -0.000000   -172.000000   -172.000000    344.000000

     1   1 0 0     -1.931181     -0.068658     -0.068658     -1.793865
     1   0 1 0      0.961747     -3.382671     -3.382671      7.727089
     1   0 0 1      2.080822     -6.850849     -6.850849     15.782520

     2   2 0 0   -203.284864  -3481.645197  -3481.645197   6760.005529
     2   1 1 0      4.576689      3.721082      3.721082     -2.865475
     2   1 0 1      3.581570    -45.608762    -45.608762     94.799094
     2   0 2 0   -209.910627  -4817.149717  -4817.149717   9424.388807
     2   0 1 1     -2.779328      3.088268      3.088268     -8.955865
     2   0 0 2   -207.028427  -2547.729700  -2547.729700   4888.430973


 Task  times  cpu:     2781.4s     wall:     2781.4s


                                NWChem Input Module
                                -------------------


 Summary of allocated global arrays
-----------------------------------
  No active global arrays


MA_summarize_allocated_blocks: starting scan ...
heap block 'gridpts', handle 126, address 0x5f00b9bb89a0:
	type of elements:		double precision
	number of elements:		203683869
	address of client space:	0x5f00b9bb8a00
	index for client space:		106647579
	total number of bytes:		1629471056
MA_summarize_allocated_blocks: scan completed: 1 heap block, 0 stack blocks
MA usage statistics:

	allocation statistics:
					      heap	     stack
					      ----	     -----
	current number of blocks	         1	         0
	maximum number of blocks	        34	        58
	current total bytes		1629471056	         0
	maximum total bytes		1648841992	  43399368
	maximum total K-bytes		   1648842	     43400
	maximum total M-bytes		      1649	        44


                                     CITATION
                                     --------
                Please cite the following reference when publishing
                           results obtained with NWChem:

          E. Apra, E. J. Bylaska, W. A. de Jong, N. Govind, K. Kowalski,
       T. P. Straatsma, M. Valiev, H. J. J. van Dam, Y. Alexeev, J. Anchell,
       V. Anisimov, F. W. Aquino, R. Atta-Fynn, J. Autschbach, N. P. Bauman,
     J. C. Becca, D. E. Bernholdt, K. Bhaskaran-Nair, S. Bogatko, P. Borowski,
         J. Boschen, J. Brabec, A. Bruner, E. Cauet, Y. Chen, G. N. Chuev,
      C. J. Cramer, J. Daily, M. J. O. Deegan, T. H. Dunning Jr., M. Dupuis,
   K. G. Dyall, G. I. Fann, S. A. Fischer, A. Fonari, H. Fruchtl, L. Gagliardi,
      J. Garza, N. Gawande, S. Ghosh, K. Glaesemann, A. W. Gotz, J. Hammond,
       V. Helms, E. D. Hermes, K. Hirao, S. Hirata, M. Jacquelin, L. Jensen,
   B. G. Johnson, H. Jonsson, R. A. Kendall, M. Klemm, R. Kobayashi, V. Konkov,
      S. Krishnamoorthy, M. Krishnan, Z. Lin, R. D. Lins, R. J. Littlefield,
      A. J. Logsdail, K. Lopata, W. Ma, A. V. Marenich, J. Martin del Campo,
   D. Mejia-Rodriguez, J. E. Moore, J. M. Mullin, T. Nakajima, D. R. Nascimento,
    J. A. Nichols, P. J. Nichols, J. Nieplocha, A. Otero-de-la-Roza, B. Palmer,
    A. Panyala, T. Pirojsirikul, B. Peng, R. Peverati, J. Pittner, L. Pollack,
   R. M. Richard, P. Sadayappan, G. C. Schatz, W. A. Shelton, D. W. Silverstein,
   D. M. A. Smith, T. A. Soares, D. Song, M. Swart, H. L. Taylor, G. S. Thomas,
            V. Tipparaju, D. G. Truhlar, K. Tsemekhman, T. Van Voorhis,
      A. Vazquez-Mayagoitia, P. Verma, O. Villa, A. Vishnu, K. D. Vogiatzis,
        D. Wang, J. H. Weare, M. J. Williamson, T. L. Windus, K. Wolinski,
        A. T. Wong, Q. Wu, C. Yang, Q. Yu, M. Zacharias, Z. Zhang, Y. Zhao,
                                and R. J. Harrison
                        "NWChem: Past, present, and future
                         J. Chem. Phys. 152, 184102 (2020)
                               doi:10.1063/5.0004997

                                      AUTHORS
                                      -------
  E. Apra, E. J. Bylaska, N. Govind, K. Kowalski, M. Valiev, D. Mejia-Rodriguez,
       A. Kunitsa, N. P. Bauman, A. Panyala, W. A. de Jong, T. P. Straatsma,
   H. J. J. van Dam, D. Wang, T. L. Windus, J. Hammond, J. Autschbach, A. Woods,
    K. Bhaskaran-Nair, J. Brabec, K. Lopata, S. A. Fischer, S. Krishnamoorthy,
     M. Jacquelin, W. Ma, M. Klemm, O. Villa, Y. Chen, V. Anisimov, F. Aquino,
     S. Hirata, M. T. Hackler, E. Hermes, L. Jensen, J. E. Moore, J. C. Becca,
      V. Konjkov, T. Risthaus, M. Malagoli, A. Marenich, A. Otero-de-la-Roza,
        J. Mullin, P. Nichols, R. Peverati, J. Pittner, Y. Zhao, P.-D. Fan,
        A. Fonari, M. J. Williamson, R. J. Harrison, J. R. Rehr, M. Dupuis,
     D. Silverstein, D. M. A. Smith, J. Nieplocha, V. Tipparaju, M. Krishnan,
     B. E. Van Kuiken, A. Vazquez-Mayagoitia, M. Swart, Q. Wu, T. Van Voorhis,
     A. A. Auer, M. Nooijen, L. D. Crosby, E. Brown, G. Cisneros, G. I. Fann,
   H. Fruchtl, J. Garza, K. Hirao, R. A. Kendall, J. A. Nichols, K. Tsemekhman,
    K. Wolinski, J. Anchell, D. E. Bernholdt, P. Borowski, T. Clark, D. Clerc,
   H. Dachsel, M. J. O. Deegan, K. Dyall, D. Elwood, E. Glendening, M. Gutowski,
   A. C. Hess, J. Jaffe, B. G. Johnson, J. Ju, R. Kobayashi, R. Kutteh, Z. Lin,
   R. Littlefield, X. Long, B. Meng, T. Nakajima, S. Niu, L. Pollack, M. Rosing,
   K. Glaesemann, G. Sandrone, M. Stave, H. Taylor, G. Thomas, J. H. van Lenthe,
                               A. T. Wong, Z. Zhang.

 Total times  cpu:     2781.9s     wall:     2781.9s
