 argument  1 = nwchem.in
  NWChem w/ OpenMP: maximum threads =    1
                                         
                                         


             Northwest Computational Chemistry Package (NWChem) 7.2.3
             --------------------------------------------------------


                    Environmental Molecular Sciences Laboratory
                       Pacific Northwest National Laboratory
                                Richland, WA 99352

                              Copyright (c) 1994-2022
                       Pacific Northwest National Laboratory
                            Battelle Memorial Institute

             NWChem is an open-source computational chemistry package
                        distributed under the terms of the
                      Educational Community License (ECL) 2.0
             A copy of the license is included with this distribution
                              in the LICENSE.TXT file

                                  ACKNOWLEDGMENT
                                  --------------

            This software and its documentation were developed at the
            EMSL at Pacific Northwest National Laboratory, a multiprogram
            national laboratory, operated for the U.S. Department of Energy
            by Battelle under Contract Number DE-AC05-76RL01830. Support
            for this work was provided by the Department of Energy Office
            of Biological and Environmental Research, Office of Basic
            Energy Sciences, and the Office of Advanced Scientific Computing.


           Job information
           ---------------

    hostname        = 18b7ff014bad
    program         = nwchem
    date            = Thu Jul  3 07:12:14 2025

    compiled        = Fri_May_02_22:05:35_2025
    source          = /opt/nwchem
    nwchem branch   = 7.2.3
    nwchem revision = N/A
    ga revision     = 5.9.1
    use scalapack   = T
    input           = nwchem.in
    prefix          = ni_singlepoint.
    data base       = ./ni_singlepoint.db
    status          = startup
    nproc           =        5
    time left       =     -1s



           Memory information
           ------------------

    heap     =    509724444 doubles =     3888.9 Mbytes
    stack    =    509724445 doubles =     3888.9 Mbytes
    global   =    291271111 doubles =     2222.2 Mbytes (distinct from heap & stack)
    total    =   1310720000 doubles =    10000.0 Mbytes
    verify   = yes
    hardfail = no 


           Directory information
           ---------------------

  0 permanent = .
  0 scratch   = .




                                NWChem Input Module
                                -------------------


                          Ni complex single-point energy
                          ------------------------------

 Scaling coordinates for geometry "geometry" by  1.889725989
 (inverse scale =  0.529177249)

 C1  symmetry detected

          ------
          auto-z
          ------
  no constraints, skipping    0.0000000000000000     
  no constraints, skipping    0.0000000000000000     


                             Geometry "geometry" -> ""
                             -------------------------

 Output coordinates in angstroms (scale by  1.889725989 to convert to a.u.)

  No.       Tag          Charge          X              Y              Z
 ---- ---------------- ---------- -------------- -------------- --------------
    1 C                    6.0000     1.38459828     0.84586970    -1.15872661
    2 O                    8.0000     1.26189757     1.57811192    -2.11206660
    3 Ni                  28.0000     0.10679826    -0.42856603    -0.82042484
    4 C                    6.0000    -1.12703829     0.46147372     0.32156004
    5 N                    7.0000    -2.01542923    -0.31383990     0.96591114
    6 N                    7.0000    -1.47371960     1.72977301     0.54759370
    7 C                    6.0000    -3.03141049     0.42861372     1.71236086
    8 C                    6.0000    -1.93909628    -1.74007159     0.98732512
    9 C                    6.0000    -2.72262058     1.87190778     1.30544481
   10 C                    6.0000    -0.78854292     2.88516724     0.05810607
   11 H                    1.0000    -4.03211245     0.10907301     1.41738849
   12 H                    1.0000    -2.92072491     0.25922596     2.78611068
   13 C                    6.0000    -2.53329983    -2.46358213    -0.05250513
   14 C                    6.0000    -1.28194837    -2.36590991     2.05372423
   15 H                    1.0000    -3.49709558     2.30109158     0.66559145
   16 H                    1.0000    -2.57908833     2.53528239     2.15837506
   17 C                    6.0000     0.08975322     3.54489823     0.92269224
   18 C                    6.0000    -1.03724531     3.32670689    -1.24385956
   19 C                    6.0000    -2.42107395    -3.85014193    -0.02384380
   20 C                    6.0000    -3.31726843    -1.78448491    -1.15925562
   21 C                    6.0000    -1.21570947    -3.75359524     2.05194917
   22 C                    6.0000    -0.65547840    -1.57306608     3.18427533
   23 C                    6.0000     0.76202424     4.65964832     0.43514560
   24 C                    6.0000     0.28704269     3.10635438     2.36269078
   25 C                    6.0000    -0.34525383     4.44660534    -1.68670562
   26 C                    6.0000    -2.04652879     2.64032069    -2.14450821
   27 C                    6.0000    -1.76882246    -4.48907692     1.01582290
   28 H                    1.0000    -2.85014244    -4.43652093    -0.82654635
   29 C                    6.0000    -4.80961989    -2.10078924    -1.01864090
   30 C                    6.0000    -2.80117338    -2.16355834    -2.54740264
   31 H                    1.0000    -3.19227867    -0.70538051    -1.04589916
   32 H                    1.0000    -0.70446852    -4.26584423     2.85785544
   33 C                    6.0000     0.82052628    -1.92420738     3.37390858
   34 C                    6.0000    -1.43398507    -1.78112051     4.48613103
   35 H                    1.0000    -0.70314910    -0.51410632     2.92078805
   36 C                    6.0000     0.55203215     5.10175735    -0.86005567
   37 H                    1.0000     1.45885162     5.18628252     1.07586268
   38 C                    6.0000    -0.28930024     4.14933201     3.32582743
   39 C                    6.0000     1.75314767     2.82829251     2.69140376
   40 H                    1.0000    -0.25936383     2.17117674     2.50803167
   41 H                    1.0000    -0.49724906     4.80249556    -2.69760257
   42 C                    6.0000    -1.50898310     2.38352543    -3.55240333
   43 C                    6.0000    -3.33969003     3.46014722    -2.20928378
   44 H                    1.0000    -2.27956493     1.66764646    -1.70528563
   45 H                    1.0000    -1.68312607    -5.56808695     1.01557346
   46 H                    1.0000    -5.19042985    -1.81328583    -0.03632745
   47 H                    1.0000    -4.99180478    -3.17023494    -1.14320261
   48 H                    1.0000    -5.38611109    -1.57095929    -1.77901824
   49 H                    1.0000    -1.73271521    -1.96071561    -2.63778386
   50 H                    1.0000    -3.33401812    -1.59619153    -3.31296969
   51 H                    1.0000    -2.96016702    -3.22435103    -2.75183841
   52 H                    1.0000     1.37420365    -1.81502110     2.44190036
   53 H                    1.0000     0.94284309    -2.95287734     3.71847291
   54 H                    1.0000     1.27159213    -1.26749308     4.12016378
   55 H                    1.0000    -2.48873788    -1.52375167     4.37152974
   56 H                    1.0000    -1.01483233    -1.16925005     5.28690195
   57 H                    1.0000    -1.38375777    -2.82587019     4.80000269
   58 H                    1.0000     1.09080324     5.96586078    -1.22790387
   59 H                    1.0000    -1.34006379     4.36059178     3.11744346
   60 H                    1.0000     0.25664113     5.09132180     3.24236933
   61 H                    1.0000    -0.20464835     3.80459999     4.35837302
   62 H                    1.0000     2.17113432     2.07280794     2.02887689
   63 H                    1.0000     1.84636925     2.47402552     3.72033964
   64 H                    1.0000     2.35804265     3.73216577     2.59606029
   65 H                    1.0000    -0.55203723     1.86742880    -3.51018260
   66 H                    1.0000    -1.37263669     3.31780549    -4.10143414
   67 H                    1.0000    -2.22181097     1.77699958    -4.11514571
   68 H                    1.0000    -3.76229474     3.63963743    -1.21873147
   69 H                    1.0000    -4.08859815     2.94696983    -2.81587574
   70 H                    1.0000    -3.14721152     4.43423487    -2.66457048
   71 N                    7.0000     0.86066279    -1.60689285    -2.00861895
   72 C                    6.0000     4.88638683     1.13933134     1.27920471
   73 C                    6.0000     4.61122646     2.11254424     0.32447847
   74 H                    1.0000     4.27032309    -0.72323199     2.15186366
   75 C                    6.0000     4.04693888     0.04231321     1.41941712
   76 C                    6.0000     3.48582685     1.99844337    -0.47425888
   77 C                    6.0000     2.62807544     0.91311329    -0.31660478
   78 C                    6.0000     2.91865467    -0.06959815     0.61914330
   79 H                    1.0000     3.24473823     2.73983016    -1.22551426
   80 H                    1.0000     2.26172802    -0.92677001     0.70380143
   81 H                    1.0000     5.76062248     1.23585916     1.91087566
   82 H                    1.0000     5.27649167     2.95886880     0.20655323
   83 C                    6.0000     1.72663212    -2.60410279    -1.58936009
   84 C                    6.0000     2.86914299    -3.00248797    -2.30130864
   85 C                    6.0000     1.44585929    -3.28998322    -0.39348799
   86 C                    6.0000     3.67176143    -4.03721132    -1.83894636
   87 H                    1.0000     3.14374889    -2.49616498    -3.21571352
   88 C                    6.0000     2.24638626    -4.32203509     0.05538950
   89 H                    1.0000     0.55045796    -3.01744702     0.15487306
   90 C                    6.0000     3.37058850    -4.71307129    -0.66707778
   91 H                    1.0000     4.54939069    -4.31586028    -2.41048668
   92 H                    1.0000     1.97854460    -4.84472449     0.96714873
   93 H                    1.0000     3.98970202    -5.53321328    -0.32803412
   94 C                    6.0000     0.99604427    -1.19519866    -3.39438123
   95 H                    1.0000     1.96822425    -0.74447693    -3.63093591
   96 H                    1.0000     0.84914497    -2.05021863    -4.06548302
   97 H                    1.0000     0.23915542    -0.44600194    -3.62272083

      Atomic Mass 
      ----------- 

      C                 12.000000
      O                 15.994910
      Ni                57.935300
      N                 14.003070
      H                  1.007825


 Effective nuclear repulsion energy (a.u.)    7257.5844379836

            Nuclear Dipole moment (a.u.) 
            ----------------------------
        X                 Y               Z
 ---------------- ---------------- ----------------
     0.0000000000     0.0000000000     0.0000000000



                                Z-matrix (autoz)
                                -------- 

 Units are Angstrom for bonds and degrees for angles

      Type          Name      I     J     K     L     M      Value
      ----------- --------  ----- ----- ----- ----- ----- ----------
    1 Stretch                  1     2                       1.20834
    2 Stretch                  1     3                       1.83614
    3 Stretch                  1    77                       1.50331
    4 Stretch                  3     4                       1.90228
    5 Stretch                  3    71                       1.83537
    6 Stretch                  4     5                       1.34370
    7 Stretch                  4     6                       1.33411
    8 Stretch                  5     7                       1.46309
    9 Stretch                  5     8                       1.42843
   10 Stretch                  6     9                       1.46775
   11 Stretch                  6    10                       1.42969
   12 Stretch                  7     9                       1.53102
   13 Stretch                  7    11                       1.09111
   14 Stretch                  7    12                       1.09265
   15 Stretch                  8    13                       1.39921
   16 Stretch                  8    14                       1.40026
   17 Stretch                  9    15                       1.09244
   18 Stretch                  9    16                       1.09003
   19 Stretch                 10    17                       1.39791
   20 Stretch                 10    18                       1.39711
   21 Stretch                 13    19                       1.39139
   22 Stretch                 13    20                       1.51680
   23 Stretch                 14    21                       1.38927
   24 Stretch                 14    22                       1.51632
   25 Stretch                 17    23                       1.39008
   26 Stretch                 17    24                       1.51817
   27 Stretch                 18    25                       1.38893
   28 Stretch                 18    26                       1.51689
   29 Stretch                 19    27                       1.38368
   30 Stretch                 19    28                       1.08271
   31 Stretch                 20    29                       1.53197
   32 Stretch                 20    30                       1.52873
   33 Stretch                 20    31                       1.09222
   34 Stretch                 21    27                       1.38579
   35 Stretch                 21    32                       1.08317
   36 Stretch                 22    33                       1.52900
   37 Stretch                 22    34                       1.53107
   38 Stretch                 22    35                       1.09229
   39 Stretch                 23    36                       1.38460
   40 Stretch                 23    37                       1.08325
   41 Stretch                 24    38                       1.53219
   42 Stretch                 24    39                       1.52802
   43 Stretch                 24    40                       1.09281
   44 Stretch                 25    36                       1.38481
   45 Stretch                 25    41                       1.08244
   46 Stretch                 26    42                       1.52875
   47 Stretch                 26    43                       1.53251
   48 Stretch                 26    44                       1.09239
   49 Stretch                 27    45                       1.08241
   50 Stretch                 29    46                       1.09207
   51 Stretch                 29    47                       1.09198
   52 Stretch                 29    48                       1.09144
   53 Stretch                 30    49                       1.09129
   54 Stretch                 30    50                       1.09175
   55 Stretch                 30    51                       1.09195
   56 Stretch                 33    52                       1.08955
   57 Stretch                 33    53                       1.09172
   58 Stretch                 33    54                       1.09162
   59 Stretch                 34    55                       1.09173
   60 Stretch                 34    56                       1.09147
   61 Stretch                 34    57                       1.09203
   62 Stretch                 36    58                       1.08271
   63 Stretch                 38    59                       1.09186
   64 Stretch                 38    60                       1.09195
   65 Stretch                 38    61                       1.09186
   66 Stretch                 39    62                       1.08831
   67 Stretch                 39    63                       1.09220
   68 Stretch                 39    64                       1.09178
   69 Stretch                 42    65                       1.08806
   70 Stretch                 42    66                       1.09220
   71 Stretch                 42    67                       1.09210
   72 Stretch                 43    68                       1.09179
   73 Stretch                 43    69                       1.09186
   74 Stretch                 43    70                       1.09233
   75 Stretch                 71    83                       1.38568
   76 Stretch                 71    94                       1.45195
   77 Stretch                 72    73                       1.39081
   78 Stretch                 72    75                       1.38845
   79 Stretch                 72    81                       1.08287
   80 Stretch                 73    76                       1.38475
   81 Stretch                 73    82                       1.08294
   82 Stretch                 74    75                       1.08279
   83 Stretch                 75    78                       1.38780
   84 Stretch                 76    77                       1.39231
   85 Stretch                 76    79                       1.08266
   86 Stretch                 77    78                       1.38773
   87 Stretch                 78    80                       1.08327
   88 Stretch                 83    84                       1.40389
   89 Stretch                 83    85                       1.40690
   90 Stretch                 84    86                       1.38875
   91 Stretch                 84    87                       1.08070
   92 Stretch                 85    88                       1.38111
   93 Stretch                 85    89                       1.08477
   94 Stretch                 86    90                       1.38592
   95 Stretch                 86    91                       1.08376
   96 Stretch                 88    90                       1.39237
   97 Stretch                 88    92                       1.08455
   98 Stretch                 90    93                       1.08207
   99 Stretch                 94    95                       1.09738
  100 Stretch                 94    96                       1.09682
  101 Stretch                 94    97                       1.08918
  102 Bend                     1     3     4               103.72355
  103 Bend                     1     3    71                92.32045
  104 Bend                     1    77    76               118.75214
  105 Bend                     1    77    78               121.28244
  106 Bend                     2     1     3               119.68985
  107 Bend                     2     1    77               119.92397
  108 Bend                     3     1    77               120.22995
  109 Bend                     3     4     5               116.53470
  110 Bend                     3     4     6               135.64792
  111 Bend                     3    71    83               121.52292
  112 Bend                     3    71    94               118.30305
  113 Bend                     4     3    71               162.83163
  114 Bend                     4     5     7               114.26508
  115 Bend                     4     5     8               123.22761
  116 Bend                     4     6     9               113.61906
  117 Bend                     4     6    10               125.85481
  118 Bend                     5     4     6               107.18641
  119 Bend                     5     7     9               101.69640
  120 Bend                     5     7    11               110.50763
  121 Bend                     5     7    12               110.63111
  122 Bend                     5     8    13               118.84574
  123 Bend                     5     8    14               118.86527
  124 Bend                     6     9     7               102.56564
  125 Bend                     6     9    15               109.80717
  126 Bend                     6     9    16               110.54331
  127 Bend                     6    10    17               118.08312
  128 Bend                     6    10    18               119.28471
  129 Bend                     7     5     8               122.42071
  130 Bend                     7     9    15               112.52219
  131 Bend                     7     9    16               113.09781
  132 Bend                     8    13    19               117.75739
  133 Bend                     8    13    20               122.02155
  134 Bend                     8    14    21               117.89412
  135 Bend                     8    14    22               121.87178
  136 Bend                     9     6    10               120.41842
  137 Bend                     9     7    11               112.90493
  138 Bend                     9     7    12               112.76138
  139 Bend                    10    17    23               117.73589
  140 Bend                    10    17    24               122.13794
  141 Bend                    10    18    25               117.59751
  142 Bend                    10    18    26               121.92097
  143 Bend                    11     7    12               108.25049
  144 Bend                    13     8    14               122.28682
  145 Bend                    13    19    27               120.90793
  146 Bend                    13    19    28               119.50285
  147 Bend                    13    20    29               110.12550
  148 Bend                    13    20    30               112.15136
  149 Bend                    13    20    31               107.90662
  150 Bend                    14    21    27               120.80051
  151 Bend                    14    21    32               119.59940
  152 Bend                    14    22    33               111.79107
  153 Bend                    14    22    34               110.66108
  154 Bend                    14    22    35               108.00106
  155 Bend                    15     9    16               108.21410
  156 Bend                    17    10    18               122.61939
  157 Bend                    17    23    36               120.71734
  158 Bend                    17    23    37               119.57218
  159 Bend                    17    24    38               110.53134
  160 Bend                    17    24    39               112.41424
  161 Bend                    17    24    40               107.96093
  162 Bend                    18    25    36               120.92742
  163 Bend                    18    25    41               119.53180
  164 Bend                    18    26    42               112.88363
  165 Bend                    18    26    43               110.14997
  166 Bend                    18    26    44               107.82532
  167 Bend                    19    13    20               120.19088
  168 Bend                    19    27    21               120.32211
  169 Bend                    19    27    45               119.83225
  170 Bend                    20    29    46               111.58574
  171 Bend                    20    29    47               110.74824
  172 Bend                    20    29    48               110.50935
  173 Bend                    20    30    49               111.07860
  174 Bend                    20    30    50               110.06649
  175 Bend                    20    30    51               111.20709
  176 Bend                    21    14    22               120.23409
  177 Bend                    21    27    45               119.84371
  178 Bend                    22    33    52               111.18935
  179 Bend                    22    33    53               111.32712
  180 Bend                    22    33    54               110.21308
  181 Bend                    22    34    55               111.71298
  182 Bend                    22    34    56               110.63305
  183 Bend                    22    34    57               110.54889
  184 Bend                    23    17    24               120.09766
  185 Bend                    23    36    25               120.37171
  186 Bend                    23    36    58               119.81350
  187 Bend                    24    38    59               111.94622
  188 Bend                    24    38    60               110.55552
  189 Bend                    24    38    61               110.50994
  190 Bend                    24    39    62               111.33823
  191 Bend                    24    39    63               110.09528
  192 Bend                    24    39    64               111.23262
  193 Bend                    25    18    26               120.46653
  194 Bend                    25    36    58               119.81465
  195 Bend                    26    42    65               110.68268
  196 Bend                    26    42    66               111.29377
  197 Bend                    26    42    67               109.77524
  198 Bend                    26    43    68               112.09978
  199 Bend                    26    43    69               110.53789
  200 Bend                    26    43    70               110.24156
  201 Bend                    27    19    28               119.58922
  202 Bend                    27    21    32               119.58311
  203 Bend                    29    20    30               111.16262
  204 Bend                    29    20    31               107.81480
  205 Bend                    30    20    31               107.49352
  206 Bend                    33    22    34               110.74337
  207 Bend                    33    22    35               107.13921
  208 Bend                    34    22    35               108.34038
  209 Bend                    36    23    37               119.71039
  210 Bend                    36    25    41               119.53296
  211 Bend                    38    24    39               110.46046
  212 Bend                    38    24    40               108.10982
  213 Bend                    39    24    40               107.18177
  214 Bend                    42    26    43               110.34322
  215 Bend                    42    26    44               107.20142
  216 Bend                    43    26    44               108.25920
  217 Bend                    46    29    47               107.59338
  218 Bend                    46    29    48               108.34112
  219 Bend                    47    29    48               107.92861
  220 Bend                    49    30    50               108.85537
  221 Bend                    49    30    51               107.91607
  222 Bend                    50    30    51               107.60826
  223 Bend                    52    33    53               107.90680
  224 Bend                    52    33    54               108.33109
  225 Bend                    53    33    54               107.74584
  226 Bend                    55    34    56               108.41371
  227 Bend                    55    34    57               107.46623
  228 Bend                    56    34    57               107.92594
  229 Bend                    59    38    60               107.43651
  230 Bend                    59    38    61               108.43240
  231 Bend                    60    38    61               107.81137
  232 Bend                    62    39    63               108.39455
  233 Bend                    62    39    64               107.98411
  234 Bend                    63    39    64               107.66895
  235 Bend                    65    42    66               108.38833
  236 Bend                    65    42    67               109.30665
  237 Bend                    66    42    67               107.30945
  238 Bend                    68    43    69               108.41004
  239 Bend                    68    43    70               107.44303
  240 Bend                    69    43    70               107.96457
  241 Bend                    71    83    84               124.01206
  242 Bend                    71    83    85               118.90131
  243 Bend                    71    94    95               113.87857
  244 Bend                    71    94    96               110.51452
  245 Bend                    71    94    97               109.28880
  246 Bend                    72    73    76               119.93938
  247 Bend                    72    73    82               120.00464
  248 Bend                    72    75    74               120.14519
  249 Bend                    72    75    78               119.80292
  250 Bend                    73    72    75               120.17077
  251 Bend                    73    72    81               119.85292
  252 Bend                    73    76    77               119.97343
  253 Bend                    73    76    79               121.65455
  254 Bend                    74    75    78               120.05181
  255 Bend                    75    72    81               119.97558
  256 Bend                    75    78    77               120.13034
  257 Bend                    75    78    80               120.78205
  258 Bend                    76    73    82               120.05597
  259 Bend                    76    77    78               119.95797
  260 Bend                    77    76    79               118.37124
  261 Bend                    77    78    80               119.08196
  262 Bend                    83    71    94               115.75714
  263 Bend                    83    84    86               120.85932
  264 Bend                    83    84    87               120.19409
  265 Bend                    83    85    88               121.66051
  266 Bend                    83    85    89               118.15988
  267 Bend                    84    83    85               117.07316
  268 Bend                    84    86    90               121.28306
  269 Bend                    84    86    91               118.94750
  270 Bend                    85    88    90               120.61137
  271 Bend                    85    88    92               119.35523
  272 Bend                    86    84    87               118.94218
  273 Bend                    86    90    88               118.50510
  274 Bend                    86    90    93               120.67830
  275 Bend                    88    85    89               120.12488
  276 Bend                    88    90    93               120.81314
  277 Bend                    90    86    91               119.76943
  278 Bend                    90    88    92               120.01690
  279 Bend                    95    94    96               107.87464
  280 Bend                    95    94    97               106.73363
  281 Bend                    96    94    97               108.35283
  282 Torsion                  1     3     4     5        -165.90604
  283 Torsion                  1     3     4     6          24.60893
  284 Torsion                  1     3    71    83          96.68635
  285 Torsion                  1     3    71    94         -58.72282
  286 Torsion                  1    77    76    73         177.49631
  287 Torsion                  1    77    76    79          -2.18924
  288 Torsion                  1    77    78    75        -177.54495
  289 Torsion                  1    77    78    80           3.31323
  290 Torsion                  2     1     3     4         -90.45740
  291 Torsion                  2     1     3    71          83.38050
  292 Torsion                  2     1    77    76          13.41078
  293 Torsion                  2     1    77    78        -167.58287
  294 Torsion                  3     1    77    76        -171.14592
  295 Torsion                  3     1    77    78           7.86043
  296 Torsion                  3     4     5     7        -173.58319
  297 Torsion                  3     4     5     8           9.73071
  298 Torsion                  3     4     6     9         165.70997
  299 Torsion                  3     4     6    10         -10.50461
  300 Torsion                  3    71    83    84        -141.41062
  301 Torsion                  3    71    83    85          39.96608
  302 Torsion                  3    71    94    95          93.40482
  303 Torsion                  3    71    94    96        -144.99166
  304 Torsion                  3    71    94    97         -25.83932
  305 Torsion                  4     3     1    77          94.08862
  306 Torsion                  4     3    71    83        -104.00087
  307 Torsion                  4     3    71    94         100.58996
  308 Torsion                  4     5     7     9           5.86873
  309 Torsion                  4     5     7    11         125.98682
  310 Torsion                  4     5     7    12        -114.13898
  311 Torsion                  4     5     8    13         -86.74463
  312 Torsion                  4     5     8    14          93.77827
  313 Torsion                  4     6     9     7           7.84287
  314 Torsion                  4     6     9    15        -111.98513
  315 Torsion                  4     6     9    16         128.69035
  316 Torsion                  4     6    10    17         -99.20937
  317 Torsion                  4     6    10    18          82.05645
  318 Torsion                  5     4     3    71          35.40000
  319 Torsion                  5     4     6     9          -4.44986
  320 Torsion                  5     4     6    10         179.33556
  321 Torsion                  5     7     9     6          -7.52971
  322 Torsion                  5     7     9    15         110.39195
  323 Torsion                  5     7     9    16        -126.60268
  324 Torsion                  5     8    13    19         178.67383
  325 Torsion                  5     8    13    20          -3.32237
  326 Torsion                  5     8    14    21        -179.78677
  327 Torsion                  5     8    14    22           0.19789
  328 Torsion                  6     4     3    71        -134.08502
  329 Torsion                  6     4     5     7          -1.25721
  330 Torsion                  6     4     5     8        -177.94331
  331 Torsion                  6     9     7    11        -125.94479
  332 Torsion                  6     9     7    12         110.96451
  333 Torsion                  6    10    17    23         179.38202
  334 Torsion                  6    10    17    24          -2.55973
  335 Torsion                  6    10    18    25        -179.53906
  336 Torsion                  6    10    18    26           1.86427
  337 Torsion                  7     5     8    13          96.83468
  338 Torsion                  7     5     8    14         -82.64243
  339 Torsion                  7     9     6    10        -175.71466
  340 Torsion                  8     5     7     9        -177.41517
  341 Torsion                  8     5     7    11         -57.29708
  342 Torsion                  8     5     7    12          62.57712
  343 Torsion                  8    13    19    27           1.42164
  344 Torsion                  8    13    19    28        -178.56845
  345 Torsion                  8    13    20    29        -109.81011
  346 Torsion                  8    13    20    30         125.83499
  347 Torsion                  8    13    20    31           7.63067
  348 Torsion                  8    14    21    27           0.83908
  349 Torsion                  8    14    21    32         179.33387
  350 Torsion                  8    14    22    33        -125.16224
  351 Torsion                  8    14    22    34         110.89144
  352 Torsion                  8    14    22    35          -7.54159
  353 Torsion                  9     6    10    17          84.81293
  354 Torsion                  9     6    10    18         -93.92125
  355 Torsion                 10     6     9    15          64.45734
  356 Torsion                 10     6     9    16         -54.86717
  357 Torsion                 10    17    23    36           0.63131
  358 Torsion                 10    17    23    37        -179.25810
  359 Torsion                 10    17    24    38        -111.22851
  360 Torsion                 10    17    24    39         124.83693
  361 Torsion                 10    17    24    40           6.82722
  362 Torsion                 10    18    25    36          -0.34710
  363 Torsion                 10    18    25    41         178.63110
  364 Torsion                 10    18    26    42        -133.36486
  365 Torsion                 10    18    26    43         102.79904
  366 Torsion                 10    18    26    44         -15.14198
  367 Torsion                 11     7     9    15          -8.02313
  368 Torsion                 11     7     9    16         114.98224
  369 Torsion                 12     7     9    15        -131.11382
  370 Torsion                 12     7     9    16          -8.10846
  371 Torsion                 13     8    14    21           0.75501
  372 Torsion                 13     8    14    22        -179.26032
  373 Torsion                 13    19    27    21           0.10093
  374 Torsion                 13    19    27    45        -179.39232
  375 Torsion                 13    20    29    46          56.26968
  376 Torsion                 13    20    29    47         -63.56378
  377 Torsion                 13    20    29    48         176.88727
  378 Torsion                 13    20    30    49         -54.81319
  379 Torsion                 13    20    30    50        -175.44606
  380 Torsion                 13    20    30    51          65.39797
  381 Torsion                 14     8    13    19          -1.86785
  382 Torsion                 14     8    13    20         176.13595
  383 Torsion                 14    21    27    19          -1.27198
  384 Torsion                 14    21    27    45         178.22121
  385 Torsion                 14    22    33    52          53.94048
  386 Torsion                 14    22    33    53         -66.41487
  387 Torsion                 14    22    33    54         174.08492
  388 Torsion                 14    22    34    55         -56.11187
  389 Torsion                 14    22    34    56        -176.99194
  390 Torsion                 14    22    34    57          63.51109
  391 Torsion                 17    10    18    25           1.78688
  392 Torsion                 17    10    18    26        -176.80979
  393 Torsion                 17    23    36    25           0.73555
  394 Torsion                 17    23    36    58        -179.39789
  395 Torsion                 17    24    38    59          55.41489
  396 Torsion                 17    24    38    60         -64.32892
  397 Torsion                 17    24    38    61         176.39161
  398 Torsion                 17    24    39    62         -57.25707
  399 Torsion                 17    24    39    63        -177.49991
  400 Torsion                 17    24    39    64          63.23350
  401 Torsion                 18    10    17    23          -1.92879
  402 Torsion                 18    10    17    24         176.12946
  403 Torsion                 18    25    36    23          -0.88403
  404 Torsion                 18    25    36    58         179.24941
  405 Torsion                 18    26    42    65          51.97596
  406 Torsion                 18    26    42    66         -68.62371
  407 Torsion                 18    26    42    67         172.72508
  408 Torsion                 18    26    43    68         -56.10019
  409 Torsion                 18    26    43    69        -177.17232
  410 Torsion                 18    26    43    70          63.54023
  411 Torsion                 19    13    20    29          68.14616
  412 Torsion                 19    13    20    30         -56.20874
  413 Torsion                 19    13    20    31        -174.41306
  414 Torsion                 19    27    21    32        -179.76701
  415 Torsion                 20    13    19    27        -176.62029
  416 Torsion                 20    13    19    28           3.38961
  417 Torsion                 21    14    22    33          54.82207
  418 Torsion                 21    14    22    34         -69.12425
  419 Torsion                 21    14    22    35         172.44272
  420 Torsion                 21    27    19    28        -179.90898
  421 Torsion                 22    14    21    27        -179.14584
  422 Torsion                 22    14    21    32          -0.65106
  423 Torsion                 23    17    24    38          66.78500
  424 Torsion                 23    17    24    39         -57.14956
  425 Torsion                 23    17    24    40        -175.15928
  426 Torsion                 23    36    25    41        -179.86221
  427 Torsion                 24    17    23    36        -177.46826
  428 Torsion                 24    17    23    37           2.64233
  429 Torsion                 25    18    26    42          48.07804
  430 Torsion                 25    18    26    43         -75.75806
  431 Torsion                 25    18    26    44         166.30092
  432 Torsion                 25    36    23    37        -179.37518
  433 Torsion                 26    18    25    36         178.27098
  434 Torsion                 26    18    25    41          -2.75082
  435 Torsion                 28    19    27    45           0.59777
  436 Torsion                 29    20    30    49        -178.59022
  437 Torsion                 29    20    30    50          60.77691
  438 Torsion                 29    20    30    51         -58.37906
  439 Torsion                 30    20    29    46        -178.80713
  440 Torsion                 30    20    29    47          61.35942
  441 Torsion                 30    20    29    48         -58.18954
  442 Torsion                 31    20    29    46         -61.22801
  443 Torsion                 31    20    29    47         178.93853
  444 Torsion                 31    20    29    48          59.38958
  445 Torsion                 31    20    30    49          63.63571
  446 Torsion                 31    20    30    50         -56.99716
  447 Torsion                 31    20    30    51        -176.15313
  448 Torsion                 32    21    27    45          -0.27381
  449 Torsion                 33    22    34    55         179.34278
  450 Torsion                 33    22    34    56          58.46271
  451 Torsion                 33    22    34    57         -61.03426
  452 Torsion                 34    22    33    52         177.84057
  453 Torsion                 34    22    33    53          57.48523
  454 Torsion                 34    22    33    54         -62.01499
  455 Torsion                 35    22    33    52         -64.19606
  456 Torsion                 35    22    33    53         175.44860
  457 Torsion                 35    22    33    54          55.94838
  458 Torsion                 35    22    34    55          62.11458
  459 Torsion                 35    22    34    56         -58.76549
  460 Torsion                 35    22    34    57        -178.26246
  461 Torsion                 37    23    36    58           0.49138
  462 Torsion                 38    24    39    62         178.76903
  463 Torsion                 38    24    39    63          58.52618
  464 Torsion                 38    24    39    64         -60.74041
  465 Torsion                 39    24    38    59        -179.53398
  466 Torsion                 39    24    38    60          60.72221
  467 Torsion                 39    24    38    61         -58.55726
  468 Torsion                 40    24    38    59         -62.54970
  469 Torsion                 40    24    38    60         177.70649
  470 Torsion                 40    24    38    61          58.42702
  471 Torsion                 40    24    39    62          61.21206
  472 Torsion                 40    24    39    63         -59.03078
  473 Torsion                 40    24    39    64        -178.29738
  474 Torsion                 41    25    36    58           0.27123
  475 Torsion                 42    26    43    68         178.60271
  476 Torsion                 42    26    43    69          57.53058
  477 Torsion                 42    26    43    70         -61.75687
  478 Torsion                 43    26    42    65         175.70551
  479 Torsion                 43    26    42    66          55.10585
  480 Torsion                 43    26    42    67         -63.54537
  481 Torsion                 44    26    42    65         -66.61096
  482 Torsion                 44    26    42    66         172.78938
  483 Torsion                 44    26    42    67          54.13816
  484 Torsion                 44    26    43    68          61.57285
  485 Torsion                 44    26    43    69         -59.49928
  486 Torsion                 44    26    43    70        -178.78673
  487 Torsion                 71     3     1    77         -92.07348
  488 Torsion                 71    83    84    86        -178.13936
  489 Torsion                 71    83    84    87           2.63237
  490 Torsion                 71    83    85    88         177.89994
  491 Torsion                 71    83    85    89           0.58841
  492 Torsion                 72    73    76    77           0.29117
  493 Torsion                 72    73    76    79         179.96614
  494 Torsion                 72    75    78    77          -0.14244
  495 Torsion                 72    75    78    80         178.98459
  496 Torsion                 73    72    75    74         179.00732
  497 Torsion                 73    72    75    78          -1.09387
  498 Torsion                 73    76    77    78          -1.52354
  499 Torsion                 74    75    72    81          -0.68069
  500 Torsion                 74    75    78    77         179.75647
  501 Torsion                 74    75    78    80          -1.11651
  502 Torsion                 75    72    73    76           1.01918
  503 Torsion                 75    72    73    82        -179.01219
  504 Torsion                 75    78    77    76           1.44956
  505 Torsion                 76    73    72    81        -179.29243
  506 Torsion                 76    77    78    80        -177.69226
  507 Torsion                 77    76    73    82        -179.67744
  508 Torsion                 78    75    72    81         179.21812
  509 Torsion                 78    77    76    79         178.79091
  510 Torsion                 79    76    73    82          -0.00248
  511 Torsion                 81    72    73    82           0.67621
  512 Torsion                 83    71    94    95         -63.40037
  513 Torsion                 83    71    94    96          58.20316
  514 Torsion                 83    71    94    97         177.35550
  515 Torsion                 83    84    86    90           0.28649
  516 Torsion                 83    84    86    91        -179.68079
  517 Torsion                 83    85    88    90           0.33857
  518 Torsion                 83    85    88    92        -178.18375
  519 Torsion                 84    83    71    94          14.58505
  520 Torsion                 84    83    85    88          -0.81847
  521 Torsion                 84    83    85    89        -178.13000
  522 Torsion                 84    86    90    88          -0.78117
  523 Torsion                 84    86    90    93         178.54819
  524 Torsion                 85    83    71    94        -164.03825
  525 Torsion                 85    83    84    86           0.50709
  526 Torsion                 85    83    84    87        -178.72117
  527 Torsion                 85    88    90    86           0.47084
  528 Torsion                 85    88    90    93        -178.85758
  529 Torsion                 86    90    88    92         178.98339
  530 Torsion                 87    84    86    90         179.52427
  531 Torsion                 87    84    86    91          -0.44302
  532 Torsion                 88    90    86    91         179.18585
  533 Torsion                 89    85    88    90         177.59814
  534 Torsion                 89    85    88    92          -0.92417
  535 Torsion                 91    86    90    93          -1.48479
  536 Torsion                 92    88    90    93          -0.34503


            XYZ format geometry
            -------------------
    97
 geometry
 C                     1.38459828     0.84586970    -1.15872661
 O                     1.26189757     1.57811192    -2.11206660
 Ni                    0.10679826    -0.42856603    -0.82042484
 C                    -1.12703829     0.46147372     0.32156004
 N                    -2.01542923    -0.31383990     0.96591114
 N                    -1.47371960     1.72977301     0.54759370
 C                    -3.03141049     0.42861372     1.71236086
 C                    -1.93909628    -1.74007159     0.98732512
 C                    -2.72262058     1.87190778     1.30544481
 C                    -0.78854292     2.88516724     0.05810607
 H                    -4.03211245     0.10907301     1.41738849
 H                    -2.92072491     0.25922596     2.78611068
 C                    -2.53329983    -2.46358213    -0.05250513
 C                    -1.28194837    -2.36590991     2.05372423
 H                    -3.49709558     2.30109158     0.66559145
 H                    -2.57908833     2.53528239     2.15837506
 C                     0.08975322     3.54489823     0.92269224
 C                    -1.03724531     3.32670689    -1.24385956
 C                    -2.42107395    -3.85014193    -0.02384380
 C                    -3.31726843    -1.78448491    -1.15925562
 C                    -1.21570947    -3.75359524     2.05194917
 C                    -0.65547840    -1.57306608     3.18427533
 C                     0.76202424     4.65964832     0.43514560
 C                     0.28704269     3.10635438     2.36269078
 C                    -0.34525383     4.44660534    -1.68670562
 C                    -2.04652879     2.64032069    -2.14450821
 C                    -1.76882246    -4.48907692     1.01582290
 H                    -2.85014244    -4.43652093    -0.82654635
 C                    -4.80961989    -2.10078924    -1.01864090
 C                    -2.80117338    -2.16355834    -2.54740264
 H                    -3.19227867    -0.70538051    -1.04589916
 H                    -0.70446852    -4.26584423     2.85785544
 C                     0.82052628    -1.92420738     3.37390858
 C                    -1.43398507    -1.78112051     4.48613103
 H                    -0.70314910    -0.51410632     2.92078805
 C                     0.55203215     5.10175735    -0.86005567
 H                     1.45885162     5.18628252     1.07586268
 C                    -0.28930024     4.14933201     3.32582743
 C                     1.75314767     2.82829251     2.69140376
 H                    -0.25936383     2.17117674     2.50803167
 H                    -0.49724906     4.80249556    -2.69760257
 C                    -1.50898310     2.38352543    -3.55240333
 C                    -3.33969003     3.46014722    -2.20928378
 H                    -2.27956493     1.66764646    -1.70528563
 H                    -1.68312607    -5.56808695     1.01557346
 H                    -5.19042985    -1.81328583    -0.03632745
 H                    -4.99180478    -3.17023494    -1.14320261
 H                    -5.38611109    -1.57095929    -1.77901824
 H                    -1.73271521    -1.96071561    -2.63778386
 H                    -3.33401812    -1.59619153    -3.31296969
 H                    -2.96016702    -3.22435103    -2.75183841
 H                     1.37420365    -1.81502110     2.44190036
 H                     0.94284309    -2.95287734     3.71847291
 H                     1.27159213    -1.26749308     4.12016378
 H                    -2.48873788    -1.52375167     4.37152974
 H                    -1.01483233    -1.16925005     5.28690195
 H                    -1.38375777    -2.82587019     4.80000269
 H                     1.09080324     5.96586078    -1.22790387
 H                    -1.34006379     4.36059178     3.11744346
 H                     0.25664113     5.09132180     3.24236933
 H                    -0.20464835     3.80459999     4.35837302
 H                     2.17113432     2.07280794     2.02887689
 H                     1.84636925     2.47402552     3.72033964
 H                     2.35804265     3.73216577     2.59606029
 H                    -0.55203723     1.86742880    -3.51018260
 H                    -1.37263669     3.31780549    -4.10143414
 H                    -2.22181097     1.77699958    -4.11514571
 H                    -3.76229474     3.63963743    -1.21873147
 H                    -4.08859815     2.94696983    -2.81587574
 H                    -3.14721152     4.43423487    -2.66457048
 N                     0.86066279    -1.60689285    -2.00861895
 C                     4.88638683     1.13933134     1.27920471
 C                     4.61122646     2.11254424     0.32447847
 H                     4.27032309    -0.72323199     2.15186366
 C                     4.04693888     0.04231321     1.41941712
 C                     3.48582685     1.99844337    -0.47425888
 C                     2.62807544     0.91311329    -0.31660478
 C                     2.91865467    -0.06959815     0.61914330
 H                     3.24473823     2.73983016    -1.22551426
 H                     2.26172802    -0.92677001     0.70380143
 H                     5.76062248     1.23585916     1.91087566
 H                     5.27649167     2.95886880     0.20655323
 C                     1.72663212    -2.60410279    -1.58936009
 C                     2.86914299    -3.00248797    -2.30130864
 C                     1.44585929    -3.28998322    -0.39348799
 C                     3.67176143    -4.03721132    -1.83894636
 H                     3.14374889    -2.49616498    -3.21571352
 C                     2.24638626    -4.32203509     0.05538950
 H                     0.55045796    -3.01744702     0.15487306
 C                     3.37058850    -4.71307129    -0.66707778
 H                     4.54939069    -4.31586028    -2.41048668
 H                     1.97854460    -4.84472449     0.96714873
 H                     3.98970202    -5.53321328    -0.32803412
 C                     0.99604427    -1.19519866    -3.39438123
 H                     1.96822425    -0.74447693    -3.63093591
 H                     0.84914497    -2.05021863    -4.06548302
 H                     0.23915542    -0.44600194    -3.62272083

 ==============================================================================
                                internuclear distances
 ------------------------------------------------------------------------------
       center one      |      center two      | atomic units |  angstroms
 ------------------------------------------------------------------------------
    2 O                |   1 C                |     2.28344  |     1.20834
    3 Ni               |   1 C                |     3.46980  |     1.83614
    4 C                |   3 Ni               |     3.59478  |     1.90228
    5 N                |   4 C                |     2.53923  |     1.34370
    6 N                |   4 C                |     2.52111  |     1.33411
    7 C                |   5 N                |     2.76485  |     1.46309
    8 C                |   5 N                |     2.69935  |     1.42843
    9 C                |   6 N                |     2.77365  |     1.46775
    9 C                |   7 C                |     2.89321  |     1.53102
   10 C                |   6 N                |     2.70171  |     1.42969
   11 H                |   7 C                |     2.06190  |     1.09111
   12 H                |   7 C                |     2.06481  |     1.09265
   13 C                |   8 C                |     2.64413  |     1.39921
   14 C                |   8 C                |     2.64611  |     1.40026
   15 H                |   9 C                |     2.06441  |     1.09244
   16 H                |   9 C                |     2.05985  |     1.09003
   17 C                |  10 C                |     2.64167  |     1.39791
   18 C                |  10 C                |     2.64016  |     1.39711
   19 C                |  13 C                |     2.62934  |     1.39139
   20 C                |  13 C                |     2.86633  |     1.51680
   21 C                |  14 C                |     2.62533  |     1.38927
   22 C                |  14 C                |     2.86542  |     1.51632
   23 C                |  17 C                |     2.62687  |     1.39008
   24 C                |  17 C                |     2.86892  |     1.51817
   25 C                |  18 C                |     2.62470  |     1.38893
   26 C                |  18 C                |     2.86650  |     1.51689
   27 C                |  19 C                |     2.61478  |     1.38368
   27 C                |  21 C                |     2.61877  |     1.38579
   28 H                |  19 C                |     2.04603  |     1.08271
   29 C                |  20 C                |     2.89500  |     1.53197
   30 C                |  20 C                |     2.88887  |     1.52873
   31 H                |  20 C                |     2.06399  |     1.09222
   32 H                |  21 C                |     2.04689  |     1.08317
   33 C                |  22 C                |     2.88940  |     1.52900
   34 C                |  22 C                |     2.89331  |     1.53107
   35 H                |  22 C                |     2.06413  |     1.09229
   36 C                |  23 C                |     2.61651  |     1.38460
   36 C                |  25 C                |     2.61691  |     1.38481
   37 H                |  23 C                |     2.04705  |     1.08325
   38 C                |  24 C                |     2.89542  |     1.53219
   39 C                |  24 C                |     2.88753  |     1.52802
   40 H                |  24 C                |     2.06512  |     1.09281
   41 H                |  25 C                |     2.04551  |     1.08244
   42 C                |  26 C                |     2.88891  |     1.52875
   43 C                |  26 C                |     2.89602  |     1.53251
   44 H                |  26 C                |     2.06432  |     1.09239
   45 H                |  27 C                |     2.04545  |     1.08241
   46 H                |  29 C                |     2.06371  |     1.09207
   47 H                |  29 C                |     2.06354  |     1.09198
   48 H                |  29 C                |     2.06252  |     1.09144
   49 H                |  30 C                |     2.06224  |     1.09129
   50 H                |  30 C                |     2.06311  |     1.09175
   51 H                |  30 C                |     2.06349  |     1.09195
   52 H                |  33 C                |     2.05895  |     1.08955
   53 H                |  33 C                |     2.06305  |     1.09172
   54 H                |  33 C                |     2.06286  |     1.09162
   55 H                |  34 C                |     2.06307  |     1.09173
   56 H                |  34 C                |     2.06258  |     1.09147
   57 H                |  34 C                |     2.06365  |     1.09203
   58 H                |  36 C                |     2.04603  |     1.08271
   59 H                |  38 C                |     2.06332  |     1.09186
   60 H                |  38 C                |     2.06349  |     1.09195
   61 H                |  38 C                |     2.06331  |     1.09186
   62 H                |  39 C                |     2.05660  |     1.08831
   63 H                |  39 C                |     2.06396  |     1.09220
   64 H                |  39 C                |     2.06316  |     1.09178
   65 H                |  42 C                |     2.05614  |     1.08806
   66 H                |  42 C                |     2.06396  |     1.09220
   67 H                |  42 C                |     2.06376  |     1.09210
   68 H                |  43 C                |     2.06318  |     1.09179
   69 H                |  43 C                |     2.06332  |     1.09186
   70 H                |  43 C                |     2.06420  |     1.09233
   71 N                |   3 Ni               |     3.46834  |     1.83537
   73 C                |  72 C                |     2.62825  |     1.39081
   75 C                |  72 C                |     2.62378  |     1.38845
   75 C                |  74 H                |     2.04618  |     1.08279
   76 C                |  73 C                |     2.61679  |     1.38475
   77 C                |   1 C                |     2.84083  |     1.50331
   77 C                |  76 C                |     2.63109  |     1.39231
   78 C                |  75 C                |     2.62256  |     1.38780
   78 C                |  77 C                |     2.62242  |     1.38773
   79 H                |  76 C                |     2.04594  |     1.08266
   80 H                |  78 C                |     2.04707  |     1.08327
   81 H                |  72 C                |     2.04633  |     1.08287
   82 H                |  73 C                |     2.04645  |     1.08294
   83 C                |  71 N                |     2.61856  |     1.38568
   84 C                |  83 C                |     2.65297  |     1.40389
   85 C                |  83 C                |     2.65866  |     1.40690
   86 C                |  84 C                |     2.62436  |     1.38875
   87 H                |  84 C                |     2.04222  |     1.08070
   88 C                |  85 C                |     2.60992  |     1.38111
   89 H                |  85 C                |     2.04991  |     1.08477
   90 C                |  86 C                |     2.61900  |     1.38592
   90 C                |  88 C                |     2.63120  |     1.39237
   91 H                |  86 C                |     2.04801  |     1.08376
   92 H                |  88 C                |     2.04950  |     1.08455
   93 H                |  90 C                |     2.04482  |     1.08207
   94 C                |  71 N                |     2.74379  |     1.45195
   95 H                |  94 C                |     2.07375  |     1.09738
   96 H                |  94 C                |     2.07269  |     1.09682
   97 H                |  94 C                |     2.05825  |     1.08918
 ------------------------------------------------------------------------------
                         number of included internuclear distances:        101
 ==============================================================================



 ==============================================================================
                                 internuclear angles
 ------------------------------------------------------------------------------
        center 1       |       center 2       |       center 3       |  degrees
 ------------------------------------------------------------------------------
    2 O                |   1 C                |   3 Ni               |   119.69
    2 O                |   1 C                |  77 C                |   119.92
    3 Ni               |   1 C                |  77 C                |   120.23
    1 C                |   3 Ni               |   4 C                |   103.72
    1 C                |   3 Ni               |  71 N                |    92.32
    4 C                |   3 Ni               |  71 N                |   162.83
    3 Ni               |   4 C                |   5 N                |   116.53
    3 Ni               |   4 C                |   6 N                |   135.65
    5 N                |   4 C                |   6 N                |   107.19
    4 C                |   5 N                |   7 C                |   114.27
    4 C                |   5 N                |   8 C                |   123.23
    7 C                |   5 N                |   8 C                |   122.42
    4 C                |   6 N                |   9 C                |   113.62
    4 C                |   6 N                |  10 C                |   125.85
    9 C                |   6 N                |  10 C                |   120.42
    5 N                |   7 C                |   9 C                |   101.70
    5 N                |   7 C                |  11 H                |   110.51
    5 N                |   7 C                |  12 H                |   110.63
    9 C                |   7 C                |  11 H                |   112.90
    9 C                |   7 C                |  12 H                |   112.76
   11 H                |   7 C                |  12 H                |   108.25
    5 N                |   8 C                |  13 C                |   118.85
    5 N                |   8 C                |  14 C                |   118.87
   13 C                |   8 C                |  14 C                |   122.29
    6 N                |   9 C                |   7 C                |   102.57
    6 N                |   9 C                |  15 H                |   109.81
    6 N                |   9 C                |  16 H                |   110.54
    7 C                |   9 C                |  15 H                |   112.52
    7 C                |   9 C                |  16 H                |   113.10
   15 H                |   9 C                |  16 H                |   108.21
    6 N                |  10 C                |  17 C                |   118.08
    6 N                |  10 C                |  18 C                |   119.28
   17 C                |  10 C                |  18 C                |   122.62
    8 C                |  13 C                |  19 C                |   117.76
    8 C                |  13 C                |  20 C                |   122.02
   19 C                |  13 C                |  20 C                |   120.19
    8 C                |  14 C                |  21 C                |   117.89
    8 C                |  14 C                |  22 C                |   121.87
   21 C                |  14 C                |  22 C                |   120.23
   10 C                |  17 C                |  23 C                |   117.74
   10 C                |  17 C                |  24 C                |   122.14
   23 C                |  17 C                |  24 C                |   120.10
   10 C                |  18 C                |  25 C                |   117.60
   10 C                |  18 C                |  26 C                |   121.92
   25 C                |  18 C                |  26 C                |   120.47
   13 C                |  19 C                |  27 C                |   120.91
   13 C                |  19 C                |  28 H                |   119.50
   27 C                |  19 C                |  28 H                |   119.59
   13 C                |  20 C                |  29 C                |   110.13
   13 C                |  20 C                |  30 C                |   112.15
   13 C                |  20 C                |  31 H                |   107.91
   29 C                |  20 C                |  30 C                |   111.16
   29 C                |  20 C                |  31 H                |   107.81
   30 C                |  20 C                |  31 H                |   107.49
   14 C                |  21 C                |  27 C                |   120.80
   14 C                |  21 C                |  32 H                |   119.60
   27 C                |  21 C                |  32 H                |   119.58
   14 C                |  22 C                |  33 C                |   111.79
   14 C                |  22 C                |  34 C                |   110.66
   14 C                |  22 C                |  35 H                |   108.00
   33 C                |  22 C                |  34 C                |   110.74
   33 C                |  22 C                |  35 H                |   107.14
   34 C                |  22 C                |  35 H                |   108.34
   17 C                |  23 C                |  36 C                |   120.72
   17 C                |  23 C                |  37 H                |   119.57
   36 C                |  23 C                |  37 H                |   119.71
   17 C                |  24 C                |  38 C                |   110.53
   17 C                |  24 C                |  39 C                |   112.41
   17 C                |  24 C                |  40 H                |   107.96
   38 C                |  24 C                |  39 C                |   110.46
   38 C                |  24 C                |  40 H                |   108.11
   39 C                |  24 C                |  40 H                |   107.18
   18 C                |  25 C                |  36 C                |   120.93
   18 C                |  25 C                |  41 H                |   119.53
   36 C                |  25 C                |  41 H                |   119.53
   18 C                |  26 C                |  42 C                |   112.88
   18 C                |  26 C                |  43 C                |   110.15
   18 C                |  26 C                |  44 H                |   107.83
   42 C                |  26 C                |  43 C                |   110.34
   42 C                |  26 C                |  44 H                |   107.20
   43 C                |  26 C                |  44 H                |   108.26
   19 C                |  27 C                |  21 C                |   120.32
   19 C                |  27 C                |  45 H                |   119.83
   21 C                |  27 C                |  45 H                |   119.84
   20 C                |  29 C                |  46 H                |   111.59
   20 C                |  29 C                |  47 H                |   110.75
   20 C                |  29 C                |  48 H                |   110.51
   46 H                |  29 C                |  47 H                |   107.59
   46 H                |  29 C                |  48 H                |   108.34
   47 H                |  29 C                |  48 H                |   107.93
   20 C                |  30 C                |  49 H                |   111.08
   20 C                |  30 C                |  50 H                |   110.07
   20 C                |  30 C                |  51 H                |   111.21
   49 H                |  30 C                |  50 H                |   108.86
   49 H                |  30 C                |  51 H                |   107.92
   50 H                |  30 C                |  51 H                |   107.61
   22 C                |  33 C                |  52 H                |   111.19
   22 C                |  33 C                |  53 H                |   111.33
   22 C                |  33 C                |  54 H                |   110.21
   52 H                |  33 C                |  53 H                |   107.91
   52 H                |  33 C                |  54 H                |   108.33
   53 H                |  33 C                |  54 H                |   107.75
   22 C                |  34 C                |  55 H                |   111.71
   22 C                |  34 C                |  56 H                |   110.63
   22 C                |  34 C                |  57 H                |   110.55
   55 H                |  34 C                |  56 H                |   108.41
   55 H                |  34 C                |  57 H                |   107.47
   56 H                |  34 C                |  57 H                |   107.93
   23 C                |  36 C                |  25 C                |   120.37
   23 C                |  36 C                |  58 H                |   119.81
   25 C                |  36 C                |  58 H                |   119.81
   24 C                |  38 C                |  59 H                |   111.95
   24 C                |  38 C                |  60 H                |   110.56
   24 C                |  38 C                |  61 H                |   110.51
   59 H                |  38 C                |  60 H                |   107.44
   59 H                |  38 C                |  61 H                |   108.43
   60 H                |  38 C                |  61 H                |   107.81
   24 C                |  39 C                |  62 H                |   111.34
   24 C                |  39 C                |  63 H                |   110.10
   24 C                |  39 C                |  64 H                |   111.23
   62 H                |  39 C                |  63 H                |   108.39
   62 H                |  39 C                |  64 H                |   107.98
   63 H                |  39 C                |  64 H                |   107.67
   26 C                |  42 C                |  65 H                |   110.68
   26 C                |  42 C                |  66 H                |   111.29
   26 C                |  42 C                |  67 H                |   109.78
   65 H                |  42 C                |  66 H                |   108.39
   65 H                |  42 C                |  67 H                |   109.31
   66 H                |  42 C                |  67 H                |   107.31
   26 C                |  43 C                |  68 H                |   112.10
   26 C                |  43 C                |  69 H                |   110.54
   26 C                |  43 C                |  70 H                |   110.24
   68 H                |  43 C                |  69 H                |   108.41
   68 H                |  43 C                |  70 H                |   107.44
   69 H                |  43 C                |  70 H                |   107.96
    3 Ni               |  71 N                |  83 C                |   121.52
    3 Ni               |  71 N                |  94 C                |   118.30
   83 C                |  71 N                |  94 C                |   115.76
   73 C                |  72 C                |  75 C                |   120.17
   73 C                |  72 C                |  81 H                |   119.85
   75 C                |  72 C                |  81 H                |   119.98
   72 C                |  73 C                |  76 C                |   119.94
   72 C                |  73 C                |  82 H                |   120.00
   76 C                |  73 C                |  82 H                |   120.06
   72 C                |  75 C                |  74 H                |   120.15
   72 C                |  75 C                |  78 C                |   119.80
   74 H                |  75 C                |  78 C                |   120.05
   73 C                |  76 C                |  77 C                |   119.97
   73 C                |  76 C                |  79 H                |   121.65
   77 C                |  76 C                |  79 H                |   118.37
    1 C                |  77 C                |  76 C                |   118.75
    1 C                |  77 C                |  78 C                |   121.28
   76 C                |  77 C                |  78 C                |   119.96
   75 C                |  78 C                |  77 C                |   120.13
   75 C                |  78 C                |  80 H                |   120.78
   77 C                |  78 C                |  80 H                |   119.08
   71 N                |  83 C                |  84 C                |   124.01
   71 N                |  83 C                |  85 C                |   118.90
   84 C                |  83 C                |  85 C                |   117.07
   83 C                |  84 C                |  86 C                |   120.86
   83 C                |  84 C                |  87 H                |   120.19
   86 C                |  84 C                |  87 H                |   118.94
   83 C                |  85 C                |  88 C                |   121.66
   83 C                |  85 C                |  89 H                |   118.16
   88 C                |  85 C                |  89 H                |   120.12
   84 C                |  86 C                |  90 C                |   121.28
   84 C                |  86 C                |  91 H                |   118.95
   90 C                |  86 C                |  91 H                |   119.77
   85 C                |  88 C                |  90 C                |   120.61
   85 C                |  88 C                |  92 H                |   119.36
   90 C                |  88 C                |  92 H                |   120.02
   86 C                |  90 C                |  88 C                |   118.51
   86 C                |  90 C                |  93 H                |   120.68
   88 C                |  90 C                |  93 H                |   120.81
   71 N                |  94 C                |  95 H                |   113.88
   71 N                |  94 C                |  96 H                |   110.51
   71 N                |  94 C                |  97 H                |   109.29
   95 H                |  94 C                |  96 H                |   107.87
   95 H                |  94 C                |  97 H                |   106.73
   96 H                |  94 C                |  97 H                |   108.35
 ------------------------------------------------------------------------------
                            number of included internuclear angles:        180
 ==============================================================================



                      Basis "ao basis" -> "" (cartesian)
                      -----
  C (Carbon)
  ----------
            Exponent  Coefficients 
       -------------- ---------------------------------------------------------
  1 S  1.23840169E+03  0.005457
  1 S  1.86290050E+02  0.040638
  1 S  4.22511763E+01  0.180256
  1 S  1.16765579E+01  0.463151
  1 S  3.59305065E+00  0.440872

  2 S  4.02451474E-01  1.000000

  3 S  1.30901827E-01  1.000000

  4 P  9.46809706E+00  0.038388
  4 P  2.01035451E+00  0.211170
  4 P  5.47710047E-01  0.513282

  5 P  1.52686138E-01  1.000000

  H (Hydrogen)
  ------------
            Exponent  Coefficients 
       -------------- ---------------------------------------------------------
  1 S  1.30107010E+01  0.019682
  1 S  1.96225720E+00  0.137965
  1 S  4.44537960E-01  0.478319

  2 S  1.21949620E-01  1.000000

  O (Oxygen)
  ----------
            Exponent  Coefficients 
       -------------- ---------------------------------------------------------
  1 S  2.26617678E+03 -0.005343
  1 S  3.40870102E+02 -0.039890
  1 S  7.73631352E+01 -0.178539
  1 S  2.14796449E+01 -0.464277
  1 S  6.65894331E+00 -0.443097

  2 S  8.09759757E-01  1.000000

  3 S  2.55307722E-01  1.000000

  4 P  1.77215043E+01  0.043395
  4 P  3.86355054E+00  0.230941
  4 P  1.04809209E+00  0.513753

  5 P  2.76415444E-01  1.000000

  N (Nitrogen)
  ------------
            Exponent  Coefficients 
       -------------- ---------------------------------------------------------
  1 S  1.71284159E+03 -0.005393
  1 S  2.57648127E+02 -0.040222
  1 S  5.84582459E+01 -0.179311
[...]
  ----- ------------  ---------------      ----- ------------  ---------------
   478     11.789010  84 C  s               507    -10.719009  88 C  s         
   496    -10.061095  86 C  s               518      9.922879  90 C  s         
   202     -9.019609  23 C  s               220     -8.996204  25 C  s         
   487      8.734342  85 C  s               157      8.653554  18 C  s         
   434      8.623157  76 C  s               113     -8.487159  10 C  s         

 Vector  526  Occ=0.000000D+00  E= 1.761461D+00
              MO Center= -1.4D-01, -7.3D-01, -4.7D-01, r^2= 1.5D+01
   Bfn.  Coefficient  Atom+Function         Bfn.  Coefficient  Atom+Function  
  ----- ------------  ---------------      ----- ------------  ---------------
   184    -10.645622  21 C  s               100     10.339043   8 C  py        
   166    -10.183122  19 C  s               126     10.016973  13 C  s         
    95     -9.392437   8 C  s               135      9.189772  14 C  s         
   238      9.156024  27 C  s               220      8.326186  25 C  s         
   202      8.043654  23 C  s               291     -7.426683  36 C  s         

 Vector  527  Occ=0.000000D+00  E= 1.774439D+00
              MO Center=  4.5D-01, -5.6D-01, -9.8D-01, r^2= 1.1D+01
   Bfn.  Coefficient  Atom+Function         Bfn.  Coefficient  Atom+Function  
  ----- ------------  ---------------      ----- ------------  ---------------
    22     19.003076   3 Ni s               166      7.048108  19 C  s         
    23     -6.096122   3 Ni s               184      5.666438  21 C  s         
   238     -5.455076  27 C  s               135     -5.237755  14 C  s         
   100     -5.187515   8 C  py               56     -4.819951   3 Ni dzz       
   443      4.713579  77 C  s               469      4.659333  83 C  s         

 Vector  528  Occ=0.000000D+00  E= 1.785833D+00
              MO Center=  3.1D-01,  6.2D-01, -8.4D-01, r^2= 1.4D+01
   Bfn.  Coefficient  Atom+Function         Bfn.  Coefficient  Atom+Function  
  ----- ------------  ---------------      ----- ------------  ---------------
   157     -9.808782  18 C  s               220      9.668833  25 C  s         
   113      9.513680  10 C  s               202      9.472053  23 C  s         
   487      9.067773  85 C  s               118      8.852748  10 C  py        
   148     -8.166138  17 C  s               291     -8.058170  36 C  s         
   154      7.826786  17 C  pz              507     -6.868671  88 C  s         

 Vector  529  Occ=0.000000D+00  E= 1.904016D+00
              MO Center= -1.3D+00,  4.4D-01,  4.5D-01, r^2= 6.7D+00
   Bfn.  Coefficient  Atom+Function         Bfn.  Coefficient  Atom+Function  
  ----- ------------  ---------------      ----- ------------  ---------------
    22      8.112599   3 Ni s               100     -5.330562   8 C  py        
    73     -4.300331   5 N  py               86      4.120924   7 C  s         
   104     -4.104106   9 C  s               507     -3.799396  88 C  s         
    68      3.705283   5 N  s                23     -3.541074   3 Ni s         
   487      3.345494  85 C  s                81     -3.251650   6 N  px        

 Vector  530  Occ=0.000000D+00  E= 1.937694D+00
              MO Center=  7.2D-01,  4.4D-01, -1.3D+00, r^2= 6.7D+00
   Bfn.  Coefficient  Atom+Function         Bfn.  Coefficient  Atom+Function  
  ----- ------------  ---------------      ----- ------------  ---------------
    22     16.270528   3 Ni s                23     -6.794981   3 Ni s         
    12     -5.762812   2 O  s               113     -5.099483  10 C  s         
   487      4.967210  85 C  s                54     -4.014051   3 Ni dyy       
    56     -3.792558   3 Ni dzz             157      3.789029  18 C  s         
   507     -3.490252  88 C  s                51     -3.223484   3 Ni dxx       

 Vector  531  Occ=0.000000D+00  E= 2.870083D+00
              MO Center=  7.3D-02, -3.7D-01, -9.8D-01, r^2= 2.6D+00
   Bfn.  Coefficient  Atom+Function         Bfn.  Coefficient  Atom+Function  
  ----- ------------  ---------------      ----- ------------  ---------------
    22     10.194278   3 Ni s                21      5.721084   3 Ni s         
    23     -5.151853   3 Ni s                20     -3.082706   3 Ni s         
    45     -2.747485   3 Ni dxx              48     -2.750291   3 Ni dyy       
    50     -2.743004   3 Ni dzz              34      1.922086   3 Ni py        
   487      1.926915  85 C  s                56     -1.410904   3 Ni dzz       

 Vector  532  Occ=0.000000D+00  E= 3.111551D+00
              MO Center=  2.8D-01, -4.8D-01, -6.6D-01, r^2= 1.4D+00
   Bfn.  Coefficient  Atom+Function         Bfn.  Coefficient  Atom+Function  
  ----- ------------  ---------------      ----- ------------  ---------------
    22      5.475808   3 Ni s                21      1.769107   3 Ni s         
    23     -1.338324   3 Ni s               487      1.285176  85 C  s         
   447      1.253933  77 C  px               20     -1.202465   3 Ni s         
    33      1.199569   3 Ni px                7      1.180041   1 C  px        
    32     -1.073134   3 Ni pz               50     -1.042293   3 Ni dzz       

 Vector  533  Occ=0.000000D+00  E= 3.281648D+00
              MO Center=  2.2D-01, -3.7D-01, -8.6D-01, r^2= 1.3D+00
   Bfn.  Coefficient  Atom+Function         Bfn.  Coefficient  Atom+Function  
  ----- ------------  ---------------      ----- ------------  ---------------
   448     -2.353630  77 C  py              434      2.299348  76 C  s         
   452     -1.804708  78 C  s                 8      1.717089   1 C  py        
    31      1.309702   3 Ni py                3     -1.254875   1 C  s         
   447     -1.115730  77 C  px               28     -1.084337   3 Ni py        
   449      1.032576  77 C  pz                7      1.008596   1 C  px        

 Vector  534  Occ=0.000000D+00  E= 3.359142D+00
              MO Center=  8.3D-02, -4.7D-01, -7.9D-01, r^2= 1.3D+00
   Bfn.  Coefficient  Atom+Function         Bfn.  Coefficient  Atom+Function  
  ----- ------------  ---------------      ----- ------------  ---------------
    64      1.571210   4 C  py              487      1.360247  85 C  s         
    77     -1.353105   6 N  s               475     -1.346007  83 C  pz        
    63     -1.273568   4 C  px              478     -1.153102  84 C  s         
    30     -1.063097   3 Ni px               32      1.001386   3 Ni pz        
   473      0.987026  83 C  px               65      0.962450   4 C  pz        

 Vector  535  Occ=0.000000D+00  E= 4.764409D+00
              MO Center=  1.0D-01, -4.2D-01, -8.2D-01, r^2= 6.3D-01
   Bfn.  Coefficient  Atom+Function         Bfn.  Coefficient  Atom+Function  
  ----- ------------  ---------------      ----- ------------  ---------------
    46      1.068538   3 Ni dxy              49      0.930769   3 Ni dyz       
    45     -0.868552   3 Ni dxx              40     -0.855868   3 Ni dxy       
    43     -0.740771   3 Ni dyz             487      0.716133  85 C  s         
    22      0.636005   3 Ni s                39      0.630016   3 Ni dxx       
    50      0.622627   3 Ni dzz              59     -0.609479   4 C  s         

 Vector  536  Occ=0.000000D+00  E= 4.797344D+00
              MO Center=  1.0D-01, -4.5D-01, -8.1D-01, r^2= 6.7D-01
   Bfn.  Coefficient  Atom+Function         Bfn.  Coefficient  Atom+Function  
  ----- ------------  ---------------      ----- ------------  ---------------
    95      1.373396   8 C  s               443      1.331097  77 C  s         
    49     -1.220254   3 Ni dyz               3     -1.141800   1 C  s         
     9     -1.102137   1 C  pz               43      0.964072   3 Ni dyz       
   447     -0.937670  77 C  px              135     -0.893860  14 C  s         
    45     -0.887784   3 Ni dxx              22      0.874291   3 Ni s         

 Vector  537  Occ=0.000000D+00  E= 4.826426D+00
              MO Center=  1.2D-01, -4.2D-01, -8.3D-01, r^2= 6.5D-01
   Bfn.  Coefficient  Atom+Function         Bfn.  Coefficient  Atom+Function  
  ----- ------------  ---------------      ----- ------------  ---------------
    64      1.302758   4 C  py               48      1.174599   3 Ni dyy       
    68      1.081843   5 N  s                22     -1.040924   3 Ni s         
     3      0.933502   1 C  s                77     -0.897761   6 N  s         
    42     -0.825958   3 Ni dyy              56      0.794331   3 Ni dzz       
    33     -0.788773   3 Ni px               50     -0.785405   3 Ni dzz       

 Vector  538  Occ=0.000000D+00  E= 4.854690D+00
              MO Center=  8.3D-02, -4.5D-01, -8.2D-01, r^2= 6.8D-01
   Bfn.  Coefficient  Atom+Function         Bfn.  Coefficient  Atom+Function  
  ----- ------------  ---------------      ----- ------------  ---------------
    22      4.111990   3 Ni s                47      1.617789   3 Ni dxz       
     3     -1.261285   1 C  s                41     -1.252779   3 Ni dxz       
    46     -1.210245   3 Ni dxy              53     -1.140869   3 Ni dxz       
    34      1.133942   3 Ni py               40      0.939180   3 Ni dxy       
    52      0.847051   3 Ni dxy              56     -0.849410   3 Ni dzz       

 Vector  539  Occ=0.000000D+00  E= 5.046872D+00
              MO Center=  1.1D-01, -4.3D-01, -8.2D-01, r^2= 6.9D-01
   Bfn.  Coefficient  Atom+Function         Bfn.  Coefficient  Atom+Function  
  ----- ------------  ---------------      ----- ------------  ---------------
    22      1.725969   3 Ni s                49     -1.388606   3 Ni dyz       
    46      1.380901   3 Ni dxy              55      1.333709   3 Ni dyz       
    52     -1.326498   3 Ni dxy              47      1.088296   3 Ni dxz       
    53     -1.037238   3 Ni dxz              43      1.014207   3 Ni dyz       
    40     -1.007222   3 Ni dxy              63     -0.902252   4 C  px        

 Vector  540  Occ=0.000000D+00  E= 1.021011D+01
              MO Center=  1.2D-01, -4.4D-01, -8.2D-01, r^2= 6.5D-01
   Bfn.  Coefficient  Atom+Function         Bfn.  Coefficient  Atom+Function  
  ----- ------------  ---------------      ----- ------------  ---------------
    21     27.743688   3 Ni s                20    -17.502316   3 Ni s         
    45     -7.566786   3 Ni dxx              48     -7.560763   3 Ni dyy       
    50     -7.519729   3 Ni dzz              22      4.500384   3 Ni s         
    23     -2.005309   3 Ni s                19      1.508888   3 Ni s         
    56     -0.696553   3 Ni dzz              34      0.682521   3 Ni py        

 Vector  541  Occ=0.000000D+00  E= 4.989595D+01
              MO Center=  1.1D-01, -4.3D-01, -8.2D-01, r^2= 1.1D-01
   Bfn.  Coefficient  Atom+Function         Bfn.  Coefficient  Atom+Function  
  ----- ------------  ---------------      ----- ------------  ---------------
    20     21.416111   3 Ni s                21    -20.705835   3 Ni s         
    45      5.156492   3 Ni dxx              48      5.154037   3 Ni dyy       
    50      5.145099   3 Ni dzz              19     -4.351899   3 Ni s         
    39     -2.734419   3 Ni dxx              42     -2.733701   3 Ni dyy       
    44     -2.730683   3 Ni dzz              22     -1.963510   3 Ni s         

 Vector  542  Occ=0.000000D+00  E= 1.173807D+02
              MO Center=  1.1D-01, -4.3D-01, -8.2D-01, r^2= 2.9D-02
   Bfn.  Coefficient  Atom+Function         Bfn.  Coefficient  Atom+Function  
  ----- ------------  ---------------      ----- ------------  ---------------
    26      0.835347   3 Ni pz               24      0.546096   3 Ni px        
    25     -0.371521   3 Ni py               29     -0.316545   3 Ni pz        
    27     -0.206856   3 Ni px               22     -0.171210   3 Ni s         
    32      0.164581   3 Ni pz               28      0.140762   3 Ni py        
    30      0.107689   3 Ni px               33     -0.088065   3 Ni px        

 Vector  543  Occ=0.000000D+00  E= 1.175602D+02
              MO Center=  1.1D-01, -4.3D-01, -8.2D-01, r^2= 3.1D-02
   Bfn.  Coefficient  Atom+Function         Bfn.  Coefficient  Atom+Function  
  ----- ------------  ---------------      ----- ------------  ---------------
    25      0.958626   3 Ni py               24      0.445566   3 Ni px        
    28     -0.370205   3 Ni py               31      0.204632   3 Ni py        
   448     -0.197010  77 C  py              434      0.187003  76 C  s         
    27     -0.172074   3 Ni px              452     -0.156506  78 C  s         
     8      0.147859   1 C  py               26      0.135057   3 Ni pz        

 Vector  544  Occ=0.000000D+00  E= 1.175900D+02
              MO Center=  1.1D-01, -4.3D-01, -8.2D-01, r^2= 3.1D-02
   Bfn.  Coefficient  Atom+Function         Bfn.  Coefficient  Atom+Function  
  ----- ------------  ---------------      ----- ------------  ---------------
    24      0.799235   3 Ni px               26     -0.647172   3 Ni pz        
    27     -0.310159   3 Ni px               25     -0.280300   3 Ni py        
    29      0.251227   3 Ni pz               30      0.173946   3 Ni px        
    32     -0.140850   3 Ni pz               64     -0.128331   4 C  py        
    77      0.113735   6 N  s                28      0.108743   3 Ni py        

 Vector  545  Occ=0.000000D+00  E= 6.766355D+02
              MO Center=  1.1D-01, -4.3D-01, -8.2D-01, r^2= 2.3D-02
   Bfn.  Coefficient  Atom+Function         Bfn.  Coefficient  Atom+Function  
  ----- ------------  ---------------      ----- ------------  ---------------
    20     28.870044   3 Ni s                21    -15.340769   3 Ni s         
    39     -7.285704   3 Ni dxx              42     -7.285635   3 Ni dyy       
    44     -7.286455   3 Ni dzz              19     -4.275626   3 Ni s         
    45      3.405260   3 Ni dxx              48      3.404997   3 Ni dyy       
    50      3.407802   3 Ni dzz              54      0.118552   3 Ni dyy       


 center of mass
 --------------
 x =   0.05605207 y =  -0.01938773 z =  -0.03641289

 moments of inertia (a.u.)
 ------------------
       25343.590832670598          -0.000000000002           0.000000000001
          -0.000000000002       20708.596051225304           0.000000000000
           0.000000000001           0.000000000000       29353.192359220397

     Multipole analysis of the density
     ---------------------------------

     L   x y z        total         alpha         beta         nuclear
     -   - - -        -----         -----         ----         -------
     0   0 0 0     -0.000000   -172.000000   -172.000000    344.000000

     1   1 0 0     -1.970009      0.024093      0.024093     -2.018195
     1   0 1 0      0.889907     -3.604408     -3.604408      8.098724
     1   0 0 1      2.052747     -6.725517     -6.725517     15.503781

     2   2 0 0   -203.241194  -3551.021690  -3551.021690   6898.802186
     2   1 1 0      4.804672      2.750556      2.750556     -0.696441
     2   1 0 1      3.643280    -46.360207    -46.360207     96.363694
     2   0 2 0   -209.253378  -4781.488668  -4781.488668   9353.723957
     2   0 1 1     -2.538370      3.289131      3.289131     -9.116632
     2   0 0 2   -207.485573  -2521.186224  -2521.186224   4834.886876


 Task  times  cpu:     2807.2s     wall:     2807.2s


                                NWChem Input Module
                                -------------------


 Summary of allocated global arrays
-----------------------------------
  No active global arrays


MA_summarize_allocated_blocks: starting scan ...
heap block 'gridpts', handle 84, address 0x64cbcd70d920:
	type of elements:		double precision
	number of elements:		203683869
	address of client space:	0x64cbcd70d980
	index for client space:		98933259
	total number of bytes:		1629471056
MA_summarize_allocated_blocks: scan completed: 1 heap block, 0 stack blocks
MA usage statistics:

	allocation statistics:
					      heap	     stack
					      ----	     -----
	current number of blocks	         1	         0
	maximum number of blocks	        34	        58
	current total bytes		1629471056	         0
	maximum total bytes		1648841992	  43505160
	maximum total K-bytes		   1648842	     43506
	maximum total M-bytes		      1649	        44


                                     CITATION
                                     --------
                Please cite the following reference when publishing
                           results obtained with NWChem:

          E. Apra, E. J. Bylaska, W. A. de Jong, N. Govind, K. Kowalski,
       T. P. Straatsma, M. Valiev, H. J. J. van Dam, Y. Alexeev, J. Anchell,
       V. Anisimov, F. W. Aquino, R. Atta-Fynn, J. Autschbach, N. P. Bauman,
     J. C. Becca, D. E. Bernholdt, K. Bhaskaran-Nair, S. Bogatko, P. Borowski,
         J. Boschen, J. Brabec, A. Bruner, E. Cauet, Y. Chen, G. N. Chuev,
      C. J. Cramer, J. Daily, M. J. O. Deegan, T. H. Dunning Jr., M. Dupuis,
   K. G. Dyall, G. I. Fann, S. A. Fischer, A. Fonari, H. Fruchtl, L. Gagliardi,
      J. Garza, N. Gawande, S. Ghosh, K. Glaesemann, A. W. Gotz, J. Hammond,
       V. Helms, E. D. Hermes, K. Hirao, S. Hirata, M. Jacquelin, L. Jensen,
   B. G. Johnson, H. Jonsson, R. A. Kendall, M. Klemm, R. Kobayashi, V. Konkov,
      S. Krishnamoorthy, M. Krishnan, Z. Lin, R. D. Lins, R. J. Littlefield,
      A. J. Logsdail, K. Lopata, W. Ma, A. V. Marenich, J. Martin del Campo,
   D. Mejia-Rodriguez, J. E. Moore, J. M. Mullin, T. Nakajima, D. R. Nascimento,
    J. A. Nichols, P. J. Nichols, J. Nieplocha, A. Otero-de-la-Roza, B. Palmer,
    A. Panyala, T. Pirojsirikul, B. Peng, R. Peverati, J. Pittner, L. Pollack,
   R. M. Richard, P. Sadayappan, G. C. Schatz, W. A. Shelton, D. W. Silverstein,
   D. M. A. Smith, T. A. Soares, D. Song, M. Swart, H. L. Taylor, G. S. Thomas,
            V. Tipparaju, D. G. Truhlar, K. Tsemekhman, T. Van Voorhis,
      A. Vazquez-Mayagoitia, P. Verma, O. Villa, A. Vishnu, K. D. Vogiatzis,
        D. Wang, J. H. Weare, M. J. Williamson, T. L. Windus, K. Wolinski,
        A. T. Wong, Q. Wu, C. Yang, Q. Yu, M. Zacharias, Z. Zhang, Y. Zhao,
                                and R. J. Harrison
                        "NWChem: Past, present, and future
                         J. Chem. Phys. 152, 184102 (2020)
                               doi:10.1063/5.0004997

                                      AUTHORS
                                      -------
  E. Apra, E. J. Bylaska, N. Govind, K. Kowalski, M. Valiev, D. Mejia-Rodriguez,
       A. Kunitsa, N. P. Bauman, A. Panyala, W. A. de Jong, T. P. Straatsma,
   H. J. J. van Dam, D. Wang, T. L. Windus, J. Hammond, J. Autschbach, A. Woods,
    K. Bhaskaran-Nair, J. Brabec, K. Lopata, S. A. Fischer, S. Krishnamoorthy,
     M. Jacquelin, W. Ma, M. Klemm, O. Villa, Y. Chen, V. Anisimov, F. Aquino,
     S. Hirata, M. T. Hackler, E. Hermes, L. Jensen, J. E. Moore, J. C. Becca,
      V. Konjkov, T. Risthaus, M. Malagoli, A. Marenich, A. Otero-de-la-Roza,
        J. Mullin, P. Nichols, R. Peverati, J. Pittner, Y. Zhao, P.-D. Fan,
        A. Fonari, M. J. Williamson, R. J. Harrison, J. R. Rehr, M. Dupuis,
     D. Silverstein, D. M. A. Smith, J. Nieplocha, V. Tipparaju, M. Krishnan,
     B. E. Van Kuiken, A. Vazquez-Mayagoitia, M. Swart, Q. Wu, T. Van Voorhis,
     A. A. Auer, M. Nooijen, L. D. Crosby, E. Brown, G. Cisneros, G. I. Fann,
   H. Fruchtl, J. Garza, K. Hirao, R. A. Kendall, J. A. Nichols, K. Tsemekhman,
    K. Wolinski, J. Anchell, D. E. Bernholdt, P. Borowski, T. Clark, D. Clerc,
   H. Dachsel, M. J. O. Deegan, K. Dyall, D. Elwood, E. Glendening, M. Gutowski,
   A. C. Hess, J. Jaffe, B. G. Johnson, J. Ju, R. Kobayashi, R. Kutteh, Z. Lin,
   R. Littlefield, X. Long, B. Meng, T. Nakajima, S. Niu, L. Pollack, M. Rosing,
   K. Glaesemann, G. Sandrone, M. Stave, H. Taylor, G. Thomas, J. H. van Lenthe,
                               A. T. Wong, Z. Zhang.

 Total times  cpu:     2807.7s     wall:     2807.7s
