 argument  1 = nwchem.in
  NWChem w/ OpenMP: maximum threads =    1
                                         
                                         


             Northwest Computational Chemistry Package (NWChem) 7.2.3
             --------------------------------------------------------


                    Environmental Molecular Sciences Laboratory
                       Pacific Northwest National Laboratory
                                Richland, WA 99352

                              Copyright (c) 1994-2022
                       Pacific Northwest National Laboratory
                            Battelle Memorial Institute

             NWChem is an open-source computational chemistry package
                        distributed under the terms of the
                      Educational Community License (ECL) 2.0
             A copy of the license is included with this distribution
                              in the LICENSE.TXT file

                                  ACKNOWLEDGMENT
                                  --------------

            This software and its documentation were developed at the
            EMSL at Pacific Northwest National Laboratory, a multiprogram
            national laboratory, operated for the U.S. Department of Energy
            by Battelle under Contract Number DE-AC05-76RL01830. Support
            for this work was provided by the Department of Energy Office
            of Biological and Environmental Research, Office of Basic
            Energy Sciences, and the Office of Advanced Scientific Computing.


           Job information
           ---------------

    hostname        = b440ff878b9c
    program         = nwchem
    date            = Sun Jun 29 00:21:36 2025

    compiled        = Fri_May_02_22:05:35_2025
    source          = /opt/nwchem
    nwchem branch   = 7.2.3
    nwchem revision = N/A
    ga revision     = 5.9.1
    use scalapack   = T
    input           = nwchem.in
    prefix          = ni_singlepoint.
    data base       = ./ni_singlepoint.db
    status          = startup
    nproc           =        5
    time left       =     -1s



           Memory information
           ------------------

    heap     =    509724442 doubles =     3888.9 Mbytes
    stack    =    509724443 doubles =     3888.9 Mbytes
    global   =    291271111 doubles =     2222.2 Mbytes (distinct from heap & stack)
    total    =   1310719996 doubles =    10000.0 Mbytes
    verify   = yes
    hardfail = no 


           Directory information
           ---------------------

  0 permanent = .
  0 scratch   = .




                                NWChem Input Module
                                -------------------


                          Ni complex single-point energy
                          ------------------------------

 Scaling coordinates for geometry "geometry" by  1.889725989
 (inverse scale =  0.529177249)

 C1  symmetry detected

          ------
          auto-z
          ------
  no constraints, skipping    0.0000000000000000     
  no constraints, skipping    0.0000000000000000     


                             Geometry "geometry" -> ""
                             -------------------------

 Output coordinates in angstroms (scale by  1.889725989 to convert to a.u.)

  No.       Tag          Charge          X              Y              Z
 ---- ---------------- ---------- -------------- -------------- --------------
    1 C                    6.0000     1.82529436     0.36225468    -1.48570312
    2 O                    8.0000     1.59408044     1.19315599    -2.37664882
    3 Ni                  28.0000     0.13987721    -0.34594329    -0.66808891
    4 C                    6.0000    -1.28936131     0.36701301     0.28618234
    5 N                    7.0000    -2.23694721    -0.43641618     0.81625506
    6 N                    7.0000    -1.68690658     1.62955404     0.50657084
    7 C                    6.0000    -3.30793782     0.27799081     1.50778479
    8 C                    6.0000    -2.09993530    -1.85527932     0.82250334
    9 C                    6.0000    -3.01889407     1.72940813     1.10757693
   10 C                    6.0000    -0.96790164     2.78789188     0.07973499
   11 H                    1.0000    -4.28789104    -0.06515585     1.17193863
   12 H                    1.0000    -3.24437292     0.12153210     2.58928817
   13 C                    6.0000    -2.61974616    -2.58887903    -0.24935257
   14 C                    6.0000    -1.42439062    -2.47336451     1.88070386
   15 H                    1.0000    -3.73573894     2.10590987     0.37235245
   16 H                    1.0000    -3.01156049     2.41325794     1.95724128
   17 C                    6.0000    -0.18892172     3.46800555     1.01978946
   18 C                    6.0000    -1.07556294     3.21896114    -1.24631723
   19 C                    6.0000    -2.42260119    -3.96582887    -0.25939808
   20 C                    6.0000    -3.38519596    -1.92271484    -1.37501047
   21 C                    6.0000    -1.25934399    -3.85379480     1.83718606
   22 C                    6.0000    -0.88334101    -1.68107600     3.05433989
   23 C                    6.0000     0.51540352     4.59041132     0.59904890
   24 C                    6.0000    -0.10181972     3.02048128     2.46564147
   25 C                    6.0000    -0.35341811     4.34458404    -1.62439249
   26 C                    6.0000    -1.98895330     2.53036827    -2.24120556
   27 C                    6.0000    -1.74493956    -4.59445320     0.77171687
   28 H                    1.0000    -2.80145252    -4.55374519    -1.08676506
   29 C                    6.0000    -4.83942613    -2.39874573    -1.39582398
   30 C                    6.0000    -2.70858717    -2.14784307    -2.72692395
   31 H                    1.0000    -3.38293574    -0.84776780    -1.18633695
   32 H                    1.0000    -0.73593070    -4.35524636     2.64265140
   33 C                    6.0000     0.61861925    -1.89604035     3.23786474
   34 C                    6.0000    -1.64948211    -2.02522586     4.33395641
   35 H                    1.0000    -1.02968301    -0.62073882     2.84023481
   36 C                    6.0000     0.43907294     5.02254053    -0.71351845
   37 H                    1.0000     1.13614166     5.12815527     1.30583479
   38 C                    6.0000    -0.66779056     4.08723705     3.40607224
   39 C                    6.0000     1.33157371     2.65316180     2.84496247
   40 H                    1.0000    -0.70675980     2.11761158     2.57480640
   41 H                    1.0000    -0.40648482     4.69286966    -2.64802709
   42 C                    6.0000    -1.30649176     2.27429034    -3.58464220
   43 C                    6.0000    -3.26729950     3.35300636    -2.43563670
   44 H                    1.0000    -2.26303781     1.55851912    -1.82495634
   45 H                    1.0000    -1.59699282    -5.66689033     0.74624840
   46 H                    1.0000    -5.32648322    -2.22689566    -0.43402113
   47 H                    1.0000    -4.89881376    -3.46775359    -1.61078711
   48 H                    1.0000    -5.40379500    -1.87025933    -2.16622767
   49 H                    1.0000    -1.68355094    -1.77374819    -2.70846637
   50 H                    1.0000    -3.25180066    -1.62527797    -3.51688445
   51 H                    1.0000    -2.68233797    -3.20875171    -2.98617972
   52 H                    1.0000     1.15832493    -1.62568773     2.32997798
   53 H                    1.0000     0.84667399    -2.93723977     3.47722668
   54 H                    1.0000     0.99343491    -1.27661094     4.05517159
   55 H                    1.0000    -2.72236251    -1.86378512     4.21206810
   56 H                    1.0000    -1.30133298    -1.41290818     5.16777032
   57 H                    1.0000    -1.50274820    -3.07366957     4.60284143
   58 H                    1.0000     0.99860797     5.89443844    -1.02885431
   59 H                    1.0000    -1.69649110     4.34551630     3.14619238
   60 H                    1.0000    -0.07629543     5.00373856     3.35640921
   61 H                    1.0000    -0.65139696     3.73540996     4.43958663
   62 H                    1.0000     1.72483704     1.88391644     2.18035700
   63 H                    1.0000     1.37293085     2.28158955     3.87172559
   64 H                    1.0000     1.99112588     3.52118836     2.77769492
   65 H                    1.0000    -0.35301508     1.76613584    -3.44357894
   66 H                    1.0000    -1.11919508     3.20914593    -4.11827895
   67 H                    1.0000    -1.95441787     1.66514283    -4.21952031
   68 H                    1.0000    -3.78002266     3.54049485    -1.48997333
   69 H                    1.0000    -3.95850412     2.83862471    -3.10665433
   70 H                    1.0000    -3.02904246     4.32376795    -2.87675542
   71 N                    7.0000     1.53775625    -1.04853679    -1.78282835
   72 C                    6.0000     4.56289553     1.64097189     1.58078081
   73 C                    6.0000     4.21227694     2.45468329     0.51282346
   74 H                    1.0000     4.24245136    -0.25792690     2.52942068
   75 C                    6.0000     3.99305253     0.38038998     1.69063103
   76 C                    6.0000     3.32086204     2.00276196    -0.44646345
   77 C                    6.0000     2.76349812     0.72569918    -0.36103568
   78 C                    6.0000     3.09578036    -0.07244057     0.73460968
   79 H                    1.0000     3.03741025     2.62282695    -1.28576979
   80 H                    1.0000     2.65957206    -1.05137452     0.85581735
   81 H                    1.0000     5.26807658     1.98828789     2.32525596
   82 H                    1.0000     4.63930128     3.44570426     0.42059175
   83 C                    6.0000     2.33881091    -2.14718175    -1.29834044
   84 C                    6.0000     3.63079523    -2.32102838    -1.77410629
   85 C                    6.0000     1.78805100    -3.06578859    -0.41639486
   86 C                    6.0000     4.37979388    -3.40940214    -1.35241814
   87 H                    1.0000     4.04403010    -1.60074176    -2.46979830
   88 C                    6.0000     2.54635690    -4.14479176     0.01607857
   89 H                    1.0000     0.77367913    -2.91372587    -0.06006966
   90 C                    6.0000     3.84181518    -4.31928728    -0.45196786
   91 H                    1.0000     5.38483377    -3.54831962    -1.72920334
   92 H                    1.0000     2.12139899    -4.85009213     0.71950984
   93 H                    1.0000     4.43025694    -5.16513062    -0.12058386
   94 C                    6.0000     1.14343494    -1.27698735    -3.18737010
   95 H                    1.0000     2.01156138    -1.18242050    -3.84412822
   96 H                    1.0000     0.73355053    -2.28271776    -3.26607850
   97 H                    1.0000     0.40345024    -0.54200042    -3.48441747

      Atomic Mass 
      ----------- 

      C                 12.000000
      O                 15.994910
      Ni                57.935300
      N                 14.003070
      H                  1.007825


 Effective nuclear repulsion energy (a.u.)    7258.0729903576

            Nuclear Dipole moment (a.u.) 
            ----------------------------
        X                 Y               Z
 ---------------- ---------------- ----------------
     0.0000000000     0.0000000000     0.0000000000



                                Z-matrix (autoz)
                                -------- 

 Units are Angstrom for bonds and degrees for angles

      Type          Name      I     J     K     L     M      Value
      ----------- --------  ----- ----- ----- ----- ----- ----------
    1 Stretch                  1     2                       1.24002
    2 Stretch                  1     3                       2.00267
    3 Stretch                  1    71                       1.47013
    4 Stretch                  1    77                       1.50904
    5 Stretch                  3     4                       1.86055
    6 Stretch                  3    71                       1.92103
    7 Stretch                  4     5                       1.35070
    8 Stretch                  4     6                       1.34187
    9 Stretch                  5     7                       1.46137
   10 Stretch                  5     8                       1.42548
   11 Stretch                  6     9                       1.46471
   12 Stretch                  6    10                       1.42860
   13 Stretch                  7     9                       1.53308
   14 Stretch                  7    11                       1.09126
   15 Stretch                  7    12                       1.09461
   16 Stretch                  8    13                       1.39902
   17 Stretch                  8    14                       1.39935
   18 Stretch                  9    15                       1.09370
   19 Stretch                  9    16                       1.09070
   20 Stretch                 10    17                       1.39752
   21 Stretch                 10    18                       1.39851
   22 Stretch                 13    19                       1.39103
   23 Stretch                 13    20                       1.51552
   24 Stretch                 14    21                       1.39094
   25 Stretch                 14    22                       1.51588
   26 Stretch                 17    23                       1.39028
   27 Stretch                 17    24                       1.51603
   28 Stretch                 18    25                       1.38977
   29 Stretch                 18    26                       1.51600
   30 Stretch                 19    27                       1.38477
   31 Stretch                 19    28                       1.08338
   32 Stretch                 20    29                       1.53030
   33 Stretch                 20    30                       1.52845
   34 Stretch                 20    31                       1.09138
   35 Stretch                 21    27                       1.38550
   36 Stretch                 21    32                       1.08360
   37 Stretch                 22    33                       1.52832
   38 Stretch                 22    34                       1.53063
   39 Stretch                 22    35                       1.09159
   40 Stretch                 23    36                       1.38398
   41 Stretch                 23    37                       1.08353
   42 Stretch                 24    38                       1.53059
   43 Stretch                 24    39                       1.52756
   44 Stretch                 24    40                       1.09227
   45 Stretch                 25    36                       1.38469
   46 Stretch                 25    41                       1.08256
   47 Stretch                 26    42                       1.52845
   48 Stretch                 26    43                       1.53255
   49 Stretch                 26    44                       1.09219
   50 Stretch                 27    45                       1.08289
   51 Stretch                 29    46                       1.09171
   52 Stretch                 29    47                       1.09202
   53 Stretch                 29    48                       1.09148
   54 Stretch                 30    49                       1.09132
   55 Stretch                 30    50                       1.09188
   56 Stretch                 30    51                       1.09244
   57 Stretch                 33    52                       1.09024
   58 Stretch                 33    53                       1.09243
   59 Stretch                 33    54                       1.09187
   60 Stretch                 34    55                       1.09178
   61 Stretch                 34    56                       1.09151
   62 Stretch                 34    57                       1.09227
   63 Stretch                 36    58                       1.08292
   64 Stretch                 38    59                       1.09200
   65 Stretch                 38    60                       1.09193
   66 Stretch                 38    61                       1.09188
   67 Stretch                 39    62                       1.09000
   68 Stretch                 39    63                       1.09271
   69 Stretch                 39    64                       1.09225
   70 Stretch                 42    65                       1.08960
   71 Stretch                 42    66                       1.09261
   72 Stretch                 42    67                       1.09268
   73 Stretch                 43    68                       1.09193
   74 Stretch                 43    69                       1.09207
   75 Stretch                 43    70                       1.09258
   76 Stretch                 71    83                       1.44341
   77 Stretch                 71    94                       1.47662
   78 Stretch                 72    73                       1.38766
   79 Stretch                 72    75                       1.38775
   80 Stretch                 72    81                       1.08266
   81 Stretch                 73    76                       1.38531
   82 Stretch                 73    82                       1.08304
   83 Stretch                 74    75                       1.08315
   84 Stretch                 75    78                       1.38713
   85 Stretch                 76    77                       1.39601
   86 Stretch                 76    79                       1.08132
   87 Stretch                 77    78                       1.39566
   88 Stretch                 78    80                       1.07855
   89 Stretch                 83    84                       1.38773
   90 Stretch                 83    85                       1.38744
   91 Stretch                 84    86                       1.38686
   92 Stretch                 84    87                       1.08331
   93 Stretch                 85    88                       1.38792
   94 Stretch                 85    89                       1.08584
   95 Stretch                 86    90                       1.38857
   96 Stretch                 86    91                       1.08230
   97 Stretch                 88    90                       1.38843
   98 Stretch                 88    92                       1.08298
   99 Stretch                 90    93                       1.08237
  100 Stretch                 94    95                       1.09267
  101 Stretch                 94    96                       1.08890
  102 Stretch                 94    97                       1.08444
  103 Bend                     1     3     4               136.08564
  104 Bend                     1     3    71                43.94778
  105 Bend                     1    71     3                70.97795
  106 Bend                     1    71    83               123.64442
  107 Bend                     1    71    94               113.13744
  108 Bend                     1    77    76               115.02053
  109 Bend                     1    77    78               126.53872
  110 Bend                     2     1     3               111.92352
  111 Bend                     2     1    71               117.47378
  112 Bend                     2     1    77               119.34245
  113 Bend                     3     1    71                65.07426
  114 Bend                     3     1    77               107.70584
  115 Bend                     3     4     5               120.81482
  116 Bend                     3     4     6               132.24951
  117 Bend                     3    71    83               119.17270
  118 Bend                     3    71    94               114.47025
  119 Bend                     4     5     7               114.14600
  120 Bend                     4     5     8               121.75940
  121 Bend                     4     6     9               113.63764
  122 Bend                     4     6    10               124.38186
  123 Bend                     5     4     6               106.69999
  124 Bend                     5     7     9               101.60233
  125 Bend                     5     7    11               111.02398
  126 Bend                     5     7    12               110.79994
  127 Bend                     5     8    13               118.87266
  128 Bend                     5     8    14               119.29859
  129 Bend                     6     9     7               102.35846
  130 Bend                     6     9    15               110.10092
  131 Bend                     6     9    16               110.87157
  132 Bend                     6    10    17               118.30407
  133 Bend                     6    10    18               119.63527
  134 Bend                     7     5     8               123.70784
  135 Bend                     7     9    15               112.19889
  136 Bend                     7     9    16               113.04746
  137 Bend                     8    13    19               118.15999
  138 Bend                     8    13    20               121.75120
  139 Bend                     8    14    21               118.16292
  140 Bend                     8    14    22               121.79824
  141 Bend                     9     6    10               121.66880
  142 Bend                     9     7    11               112.74731
  143 Bend                     9     7    12               112.47603
  144 Bend                    10    17    23               118.14500
  145 Bend                    10    17    24               121.99776
  146 Bend                    10    18    25               117.87835
  147 Bend                    10    18    26               121.91335
  148 Bend                    11     7    12               108.13617
  149 Bend                    13     8    14               121.81167
  150 Bend                    13    19    27               120.88655
  151 Bend                    13    19    28               119.54661
  152 Bend                    13    20    29               110.69143
  153 Bend                    13    20    30               111.63166
  154 Bend                    13    20    31               107.66750
  155 Bend                    14    21    27               120.86462
  156 Bend                    14    21    32               119.55945
  157 Bend                    14    22    33               111.72934
  158 Bend                    14    22    34               110.55408
  159 Bend                    14    22    35               107.93804
  160 Bend                    15     9    16               108.19475
  161 Bend                    17    10    18               122.05369
  162 Bend                    17    23    36               120.74037
  163 Bend                    17    23    37               119.57006
  164 Bend                    17    24    38               111.03870
  165 Bend                    17    24    39               111.20583
  166 Bend                    17    24    40               107.90896
  167 Bend                    18    25    36               120.99653
  168 Bend                    18    25    41               119.49423
  169 Bend                    18    26    42               112.57564
  170 Bend                    18    26    43               109.99935
  171 Bend                    18    26    44               107.77372
  172 Bend                    19    13    20               120.08816
  173 Bend                    19    27    21               120.09647
  174 Bend                    19    27    45               119.92842
  175 Bend                    20    29    46               111.28553
  176 Bend                    20    29    47               111.03088
  177 Bend                    20    29    48               110.50846
  178 Bend                    20    30    49               110.50805
  179 Bend                    20    30    50               110.43839
  180 Bend                    20    30    51               111.32052
  181 Bend                    21    14    22               120.03850
  182 Bend                    21    27    45               119.97488
  183 Bend                    22    33    52               110.58625
  184 Bend                    22    33    53               111.44004
  185 Bend                    22    33    54               110.33145
  186 Bend                    22    34    55               111.42562
  187 Bend                    22    34    56               110.66165
  188 Bend                    22    34    57               110.75529
  189 Bend                    23    17    24               119.85654
  190 Bend                    23    36    25               120.17006
  191 Bend                    23    36    58               119.93785
  192 Bend                    24    38    59               111.52814
  193 Bend                    24    38    60               110.89985
  194 Bend                    24    38    61               110.57627
  195 Bend                    24    39    62               110.90667
  196 Bend                    24    39    63               110.52497
  197 Bend                    24    39    64               111.11456
  198 Bend                    25    18    26               120.16060
  199 Bend                    25    36    58               119.89193
  200 Bend                    26    42    65               110.79752
  201 Bend                    26    42    66               111.25228
  202 Bend                    26    42    67               109.83639
  203 Bend                    26    43    68               111.96031
  204 Bend                    26    43    69               110.67520
  205 Bend                    26    43    70               110.25833
  206 Bend                    27    19    28               119.56651
  207 Bend                    27    21    32               119.57341
  208 Bend                    29    20    30               111.27369
  209 Bend                    29    20    31               108.10172
  210 Bend                    30    20    31               107.28147
  211 Bend                    33    22    34               111.09348
  212 Bend                    33    22    35               106.97352
  213 Bend                    34    22    35               108.37741
  214 Bend                    36    23    37               119.68821
  215 Bend                    36    25    41               119.50812
  216 Bend                    38    24    39               111.22299
  217 Bend                    38    24    40               108.05348
  218 Bend                    39    24    40               107.22443
  219 Bend                    42    26    43               110.54029
  220 Bend                    42    26    44               107.33465
  221 Bend                    43    26    44               108.46110
  222 Bend                    46    29    47               107.65347
  223 Bend                    46    29    48               108.35724
  224 Bend                    47    29    48               107.87403
  225 Bend                    49    30    50               108.38891
  226 Bend                    49    30    51               108.32101
  227 Bend                    50    30    51               107.76036
  228 Bend                    52    33    53               108.38885
  229 Bend                    52    33    54               108.22353
  230 Bend                    53    33    54               107.76016
  231 Bend                    55    34    56               108.40740
  232 Bend                    55    34    57               107.54350
  233 Bend                    56    34    57               107.91298
  234 Bend                    59    38    60               107.51478
  235 Bend                    59    38    61               108.39814
  236 Bend                    60    38    61               107.78051
  237 Bend                    62    39    63               108.62032
  238 Bend                    62    39    64               107.78467
  239 Bend                    63    39    64               107.77350
  240 Bend                    65    42    66               108.19518
  241 Bend                    65    42    67               109.51911
  242 Bend                    66    42    67               107.14915
  243 Bend                    68    43    69               108.41012
  244 Bend                    68    43    70               107.42721
  245 Bend                    69    43    70               107.96552
  246 Bend                    71     1    77               120.22203
  247 Bend                    71    83    84               119.79902
  248 Bend                    71    83    85               119.80194
  249 Bend                    71    94    95               110.25285
  250 Bend                    71    94    96               108.19007
  251 Bend                    71    94    97               109.74952
  252 Bend                    72    73    76               120.27995
  253 Bend                    72    73    82               120.16463
  254 Bend                    72    75    74               120.13660
  255 Bend                    72    75    78               120.50372
  256 Bend                    73    72    75               119.32908
  257 Bend                    73    72    81               120.37600
  258 Bend                    73    76    77               120.86148
  259 Bend                    73    76    79               121.27157
  260 Bend                    74    75    78               119.35892
  261 Bend                    75    72    81               120.29329
  262 Bend                    75    78    77               120.55526
  263 Bend                    75    78    80               118.71534
  264 Bend                    76    73    82               119.55423
  265 Bend                    76    77    78               118.43290
  266 Bend                    77    76    79               117.86644
  267 Bend                    77    78    80               120.72932
  268 Bend                    83    71    94               110.46978
  269 Bend                    83    84    86               119.79347
  270 Bend                    83    84    87               119.47274
  271 Bend                    83    85    88               119.72982
  272 Bend                    83    85    89               119.12464
  273 Bend                    84    83    85               120.30200
  274 Bend                    84    86    90               120.14387
  275 Bend                    84    86    91               119.76157
  276 Bend                    85    88    90               120.16177
  277 Bend                    85    88    92               119.62410
  278 Bend                    86    84    87               120.73346
  279 Bend                    86    90    88               119.85076
  280 Bend                    86    90    93               119.99876
  281 Bend                    88    85    89               121.13277
  282 Bend                    88    90    93               120.14967
  283 Bend                    90    86    91               120.09445
  284 Bend                    90    88    92               120.21409
  285 Bend                    95    94    96               109.60655
  286 Bend                    95    94    97               108.59288
  287 Bend                    96    94    97               110.44660
  288 Torsion                  1     3     4     5        -173.60226
  289 Torsion                  1     3     4     6          12.77788
  290 Torsion                  1     3    71    83         118.60125
  291 Torsion                  1     3    71    94        -107.44280
  292 Torsion                  1    71     4     5        -169.42301
  293 Torsion                  1    71     4     6          20.37927
  294 Torsion                  4     3     1    71        -173.34527
  295 Torsion                  1    71    83    84         -68.23104
  296 Torsion                  1    71    83    85         115.33939
  297 Torsion                  1    71    94    95          72.94743
  298 Torsion                  1    71    94    96        -167.20268
  299 Torsion                  1    71    94    97         -46.62778
  300 Torsion                  1    77    76    73        -179.15591
  301 Torsion                  1    77    76    79           0.58737
  302 Torsion                  1    77    78    75         179.00411
  303 Torsion                  1    77    78    80          -1.10339
  304 Torsion                  2     1     3     4         -62.16254
  305 Torsion                  2     1     3    71         111.18273
  306 Torsion                  2     1    71     3        -102.85003
  307 Torsion                  2     1    71    83         144.20158
  308 Torsion                  2     1    71    94           6.36736
  309 Torsion                  2     1    77    76          -1.10263
  310 Torsion                  2     1    77    78         177.85478
  311 Torsion                  3     1    71    83        -112.94839
  312 Torsion                  3     1    71    94         109.21739
  313 Torsion                  3     1    77    76        -130.08528
  314 Torsion                  3     1    77    78          48.87213
  315 Torsion                  3     4     5     7        -178.61892
  316 Torsion                  3     4     5     8           8.27078
  317 Torsion                  3     4     6     9         168.95877
  318 Torsion                  3     4     6    10          -4.70234
  319 Torsion                  3    71     1    77          96.74219
  320 Torsion                  3    71    83    84        -153.82286
  321 Torsion                  3    71    83    85          29.74757
  322 Torsion                  3    71    94    95         151.70547
  323 Torsion                  3    71    94    96         -88.44464
  324 Torsion                  3    71    94    97          32.13026
  325 Torsion                  4     3     1    77          70.91486
  326 Torsion                  4     5     7     9          10.05709
  327 Torsion                  4     5     7    11         130.17594
  328 Torsion                  4     5     7    12        -109.64372
  329 Torsion                  4     5     8    13         -91.36554
  330 Torsion                  4     5     8    14          87.15870
  331 Torsion                  4     6     9     7          11.19404
  332 Torsion                  4     6     9    15        -108.28190
  333 Torsion                  4     6     9    16         132.02248
  334 Torsion                  4     6    10    17        -100.74502
  335 Torsion                  4     6    10    18          80.19614
  336 Torsion                  5     4    71    83         -50.90669
  337 Torsion                  5     4    71    94          82.60106
  338 Torsion                  4     5     3    71        -168.79036
  339 Torsion                  5     4     6     9          -5.32282
  340 Torsion                  5     4     6    10        -178.98394
  341 Torsion                  5     7     9     6         -11.69650
  342 Torsion                  5     7     9    15         106.29906
  343 Torsion                  5     7     9    16        -131.00960
  344 Torsion                  5     8    13    19         177.01840
  345 Torsion                  5     8    13    20          -3.27549
  346 Torsion                  5     8    14    21        -177.55827
  347 Torsion                  5     8    14    22           2.65345
  348 Torsion                  6     4    71    83         138.89559
  349 Torsion                  6     4    71    94         -87.59666
  350 Torsion                  4     6     3    71         167.68722
  351 Torsion                  6     4     5     7          -3.54550
  352 Torsion                  6     4     5     8        -176.65581
  353 Torsion                  6     9     7    11        -130.59208
  354 Torsion                  6     9     7    12         106.80986
  355 Torsion                  6    10    17    23         179.64189
  356 Torsion                  6    10    17    24          -0.66374
  357 Torsion                  6    10    18    25        -179.57709
  358 Torsion                  6    10    18    26           2.93237
  359 Torsion                  7     5     8    13          96.19565
  360 Torsion                  7     5     8    14         -85.28010
  361 Torsion                  7     9     6    10        -174.95190
  362 Torsion                  8     5     7     9        -176.98566
  363 Torsion                  8     5     7    11         -56.86680
  364 Torsion                  8     5     7    12          63.31353
  365 Torsion                  8    13    19    27           0.78983
  366 Torsion                  8    13    19    28        -179.00096
  367 Torsion                  8    13    20    29        -115.35772
  368 Torsion                  8    13    20    30         120.10053
  369 Torsion                  8    13    20    31           2.60336
  370 Torsion                  8    14    21    27           0.31910
  371 Torsion                  8    14    21    32         179.73850
  372 Torsion                  8    14    22    33        -123.19742
  373 Torsion                  8    14    22    34         112.52545
  374 Torsion                  8    14    22    35          -5.85325
  375 Torsion                  9     6    10    17          86.08022
  376 Torsion                  9     6    10    18         -92.97863
  377 Torsion                 10     6     9    15          65.57216
  378 Torsion                 10     6     9    16         -54.12346
  379 Torsion                 10    17    23    36           0.31638
  380 Torsion                 10    17    23    37        -179.25854
  381 Torsion                 10    17    24    38        -116.73931
  382 Torsion                 10    17    24    39         118.84030
  383 Torsion                 10    17    24    40           1.50604
  384 Torsion                 10    18    25    36          -0.47768
  385 Torsion                 10    18    25    41         179.13476
  386 Torsion                 10    18    26    42        -133.99798
  387 Torsion                 10    18    26    43         102.24398
  388 Torsion                 10    18    26    44         -15.82551
  389 Torsion                 11     7     9    15         -12.59652
  390 Torsion                 11     7     9    16         110.09482
  391 Torsion                 12     7     9    15        -135.19458
  392 Torsion                 12     7     9    16         -12.50324
  393 Torsion                 13     8    14    21           0.92097
  394 Torsion                 13     8    14    22        -178.86731
  395 Torsion                 13    19    27    21           0.40590
  396 Torsion                 13    19    27    45        -179.76763
  397 Torsion                 13    20    29    46          55.94658
  398 Torsion                 13    20    29    47         -63.95292
  399 Torsion                 13    20    29    48         176.38408
  400 Torsion                 13    20    30    49         -57.68516
  401 Torsion                 13    20    30    50        -177.60780
  402 Torsion                 13    20    30    51          62.72955
  403 Torsion                 14     8    13    19          -1.46711
  404 Torsion                 14     8    13    20         178.23899
  405 Torsion                 14    21    27    19          -0.97726
  406 Torsion                 14    21    27    45         179.19634
  407 Torsion                 14    22    33    52          57.39342
  408 Torsion                 14    22    33    53         -63.23943
  409 Torsion                 14    22    33    54         177.09121
  410 Torsion                 14    22    34    55         -55.94182
  411 Torsion                 14    22    34    56        -176.63972
  412 Torsion                 14    22    34    57          63.72745
  413 Torsion                 17    10    18    25           1.40059
  414 Torsion                 17    10    18    26        -176.08995
  415 Torsion                 17    23    36    25           0.56842
  416 Torsion                 17    23    36    58        -179.57406
  417 Torsion                 17    24    38    59          56.22722
  418 Torsion                 17    24    38    60         -63.57066
  419 Torsion                 17    24    38    61         176.92407
  420 Torsion                 17    24    39    62         -56.43365
  421 Torsion                 17    24    39    63        -176.96297
  422 Torsion                 17    24    39    64          63.43481
  423 Torsion                 18    10    17    23          -1.32329
  424 Torsion                 18    10    17    24         178.37108
  425 Torsion                 18    25    36    23          -0.48511
  426 Torsion                 18    25    36    58         179.65730
  427 Torsion                 18    26    42    65          51.55846
  428 Torsion                 18    26    42    66         -68.84672
  429 Torsion                 18    26    42    67         172.68758
  430 Torsion                 18    26    43    68         -55.68313
  431 Torsion                 18    26    43    69        -176.75610
  432 Torsion                 18    26    43    70          63.85744
  433 Torsion                 19    13    20    29          64.34283
  434 Torsion                 19    13    20    30         -60.19893
  435 Torsion                 19    13    20    31        -177.69610
  436 Torsion                 19    27    21    32         179.60342
  437 Torsion                 20    13    19    27        -178.92135
  438 Torsion                 20    13    19    28           1.28787
  439 Torsion                 21    14    22    33          57.01819
  440 Torsion                 21    14    22    34         -67.25894
  441 Torsion                 21    14    22    35         174.36236
  442 Torsion                 21    27    19    28        -179.80336
  443 Torsion                 22    14    21    27        -179.88875
  444 Torsion                 22    14    21    32          -0.46936
  445 Torsion                 23    17    24    38          62.94996
  446 Torsion                 23    17    24    39         -61.47043
  447 Torsion                 23    17    24    40        -178.80470
  448 Torsion                 23    36    25    41         179.90250
  449 Torsion                 24    17    23    36        -179.38476
  450 Torsion                 24    17    23    37           1.04032
  451 Torsion                 25    18    26    42          48.56759
  452 Torsion                 25    18    26    43         -75.19044
  453 Torsion                 25    18    26    44         166.74007
  454 Torsion                 25    36    23    37        -179.85716
  455 Torsion                 26    18    25    36         177.05866
  456 Torsion                 26    18    25    41          -3.32890
  457 Torsion                 28    19    27    45           0.02312
  458 Torsion                 29    20    30    49         178.09947
  459 Torsion                 29    20    30    50          58.17684
  460 Torsion                 29    20    30    51         -61.48581
  461 Torsion                 30    20    29    46        -179.30809
  462 Torsion                 30    20    29    47          60.79241
  463 Torsion                 30    20    29    48         -58.87059
  464 Torsion                 31    20    29    46         -61.74905
  465 Torsion                 31    20    29    47         178.35145
  466 Torsion                 31    20    29    48          58.68845
  467 Torsion                 31    20    30    49          60.04433
  468 Torsion                 31    20    30    50         -59.87830
  469 Torsion                 31    20    30    51        -179.54096
  470 Torsion                 32    21    27    45          -0.22298
  471 Torsion                 33    22    34    55         179.41769
  472 Torsion                 33    22    34    56          58.71979
  473 Torsion                 33    22    34    57         -60.91303
  474 Torsion                 34    22    33    52        -178.63217
  475 Torsion                 34    22    33    53          60.73498
  476 Torsion                 34    22    33    54         -58.93437
  477 Torsion                 35    22    33    52         -60.53007
  478 Torsion                 35    22    33    53         178.83708
  479 Torsion                 35    22    33    54          59.16773
  480 Torsion                 35    22    34    55          62.16863
  481 Torsion                 35    22    34    56         -58.52927
  482 Torsion                 35    22    34    57        -178.16210
  483 Torsion                 37    23    36    58           0.00036
  484 Torsion                 38    24    39    62         179.25010
  485 Torsion                 38    24    39    63          58.72079
  486 Torsion                 38    24    39    64         -60.88143
  487 Torsion                 39    24    38    59        -179.36212
  488 Torsion                 39    24    38    60          60.84001
  489 Torsion                 39    24    38    61         -58.66526
  490 Torsion                 40    24    38    59         -61.93066
  491 Torsion                 40    24    38    60         178.27147
  492 Torsion                 40    24    38    61          58.76620
  493 Torsion                 40    24    39    62          61.31617
  494 Torsion                 40    24    39    63         -59.21315
  495 Torsion                 40    24    39    64        -178.81537
  496 Torsion                 41    25    36    58           0.04492
  497 Torsion                 42    26    43    68         179.38200
  498 Torsion                 42    26    43    69          58.30903
  499 Torsion                 42    26    43    70         -61.07743
  500 Torsion                 43    26    42    65         175.01589
  501 Torsion                 43    26    42    66          54.61071
  502 Torsion                 43    26    42    67         -63.85499
  503 Torsion                 44    26    42    65         -66.87195
  504 Torsion                 44    26    42    66         172.72287
  505 Torsion                 44    26    42    67          54.25717
  506 Torsion                 44    26    43    68          61.96082
  507 Torsion                 44    26    43    69         -59.11216
  508 Torsion                 44    26    43    70        -178.49861
  509 Torsion                 71     1    77    76         158.94174
  510 Torsion                 71     1    77    78         -22.10084
  511 Torsion                 71     3     1    77        -115.73987
  512 Torsion                 71    83    84    86        -177.21508
  513 Torsion                 71    83    84    87           2.99218
  514 Torsion                 71    83    85    88         178.00188
  515 Torsion                 71    83    85    89          -3.28295
  516 Torsion                 72    73    76    77          -0.19154
  517 Torsion                 72    73    76    79        -179.92602
  518 Torsion                 72    75    78    77           0.74986
  519 Torsion                 72    75    78    80        -179.14477
  520 Torsion                 73    72    75    74        -178.79170
  521 Torsion                 73    72    75    78           0.88848
  522 Torsion                 73    76    77    78           1.79666
  523 Torsion                 74    75    72    81           0.74549
  524 Torsion                 74    75    78    77        -179.56749
  525 Torsion                 74    75    78    80           0.53788
  526 Torsion                 75    72    73    76          -1.16525
  527 Torsion                 75    72    73    82         179.23347
  528 Torsion                 75    78    77    76          -2.07023
  529 Torsion                 76    73    72    81         179.29795
  530 Torsion                 76    77    78    80         177.82227
  531 Torsion                 77     1    71    83         -16.20620
  532 Torsion                 77     1    71    94        -154.04041
  533 Torsion                 77    76    73    82         179.41217
  534 Torsion                 78    75    72    81        -179.57433
  535 Torsion                 78    77    76    79        -178.46006
  536 Torsion                 79    76    73    82          -0.32230
  537 Torsion                 81    72    73    82          -0.30333
  538 Torsion                  4     3    83    71         173.52491
  539 Torsion                 83    71    94    95         -70.43304
  540 Torsion                 83    71    94    96          49.41685
  541 Torsion                 83    71    94    97         169.99175
  542 Torsion                 83    84    86    90          -0.31328
  543 Torsion                 83    84    86    91         179.56742
  544 Torsion                 83    85    88    90          -1.26476
  545 Torsion                 83    85    88    92         178.80740
  546 Torsion                 84    83    71    94          70.55384
  547 Torsion                 84    83    85    88           1.59051
  548 Torsion                 84    83    85    89        -179.69432
  549 Torsion                 84    86    90    88           0.63524
  550 Torsion                 84    86    90    93        -179.69067
  551 Torsion                 85    83    71    94        -105.87574
  552 Torsion                 85    83    84    86          -0.80360
  553 Torsion                 85    83    84    87         179.40365
  554 Torsion                 85    88    90    86           0.15673
  555 Torsion                 85    88    90    93        -179.51686
  556 Torsion                 86    90    88    92        -179.91585
  557 Torsion                 87    84    86    90         179.47680
  558 Torsion                 87    84    86    91          -0.64249
  559 Torsion                 88    90    86    91        -179.24507
  560 Torsion                 89    85    88    90        -179.95352
  561 Torsion                 89    85    88    92           0.11863
  562 Torsion                 91    86    90    93           0.42902
  563 Torsion                 92    88    90    93           0.41056
  564 Torsion                  4     3    94    71         177.82822


            XYZ format geometry
            -------------------
    97
 geometry
 C                     1.82529436     0.36225468    -1.48570312
 O                     1.59408044     1.19315599    -2.37664882
 Ni                    0.13987721    -0.34594329    -0.66808891
 C                    -1.28936131     0.36701301     0.28618234
 N                    -2.23694721    -0.43641618     0.81625506
 N                    -1.68690658     1.62955404     0.50657084
 C                    -3.30793782     0.27799081     1.50778479
 C                    -2.09993530    -1.85527932     0.82250334
 C                    -3.01889407     1.72940813     1.10757693
 C                    -0.96790164     2.78789188     0.07973499
 H                    -4.28789104    -0.06515585     1.17193863
 H                    -3.24437292     0.12153210     2.58928817
 C                    -2.61974616    -2.58887903    -0.24935257
 C                    -1.42439062    -2.47336451     1.88070386
 H                    -3.73573894     2.10590987     0.37235245
 H                    -3.01156049     2.41325794     1.95724128
 C                    -0.18892172     3.46800555     1.01978946
 C                    -1.07556294     3.21896114    -1.24631723
 C                    -2.42260119    -3.96582887    -0.25939808
 C                    -3.38519596    -1.92271484    -1.37501047
 C                    -1.25934399    -3.85379480     1.83718606
 C                    -0.88334101    -1.68107600     3.05433989
 C                     0.51540352     4.59041132     0.59904890
 C                    -0.10181972     3.02048128     2.46564147
 C                    -0.35341811     4.34458404    -1.62439249
 C                    -1.98895330     2.53036827    -2.24120556
 C                    -1.74493956    -4.59445320     0.77171687
 H                    -2.80145252    -4.55374519    -1.08676506
 C                    -4.83942613    -2.39874573    -1.39582398
 C                    -2.70858717    -2.14784307    -2.72692395
 H                    -3.38293574    -0.84776780    -1.18633695
 H                    -0.73593070    -4.35524636     2.64265140
 C                     0.61861925    -1.89604035     3.23786474
 C                    -1.64948211    -2.02522586     4.33395641
 H                    -1.02968301    -0.62073882     2.84023481
 C                     0.43907294     5.02254053    -0.71351845
 H                     1.13614166     5.12815527     1.30583479
 C                    -0.66779056     4.08723705     3.40607224
 C                     1.33157371     2.65316180     2.84496247
 H                    -0.70675980     2.11761158     2.57480640
 H                    -0.40648482     4.69286966    -2.64802709
 C                    -1.30649176     2.27429034    -3.58464220
 C                    -3.26729950     3.35300636    -2.43563670
 H                    -2.26303781     1.55851912    -1.82495634
 H                    -1.59699282    -5.66689033     0.74624840
 H                    -5.32648322    -2.22689566    -0.43402113
 H                    -4.89881376    -3.46775359    -1.61078711
 H                    -5.40379500    -1.87025933    -2.16622767
 H                    -1.68355094    -1.77374819    -2.70846637
 H                    -3.25180066    -1.62527797    -3.51688445
 H                    -2.68233797    -3.20875171    -2.98617972
 H                     1.15832493    -1.62568773     2.32997798
 H                     0.84667399    -2.93723977     3.47722668
 H                     0.99343491    -1.27661094     4.05517159
 H                    -2.72236251    -1.86378512     4.21206810
 H                    -1.30133298    -1.41290818     5.16777032
 H                    -1.50274820    -3.07366957     4.60284143
 H                     0.99860797     5.89443844    -1.02885431
 H                    -1.69649110     4.34551630     3.14619238
 H                    -0.07629543     5.00373856     3.35640921
 H                    -0.65139696     3.73540996     4.43958663
 H                     1.72483704     1.88391644     2.18035700
 H                     1.37293085     2.28158955     3.87172559
 H                     1.99112588     3.52118836     2.77769492
 H                    -0.35301508     1.76613584    -3.44357894
 H                    -1.11919508     3.20914593    -4.11827895
 H                    -1.95441787     1.66514283    -4.21952031
 H                    -3.78002266     3.54049485    -1.48997333
 H                    -3.95850412     2.83862471    -3.10665433
 H                    -3.02904246     4.32376795    -2.87675542
 N                     1.53775625    -1.04853679    -1.78282835
 C                     4.56289553     1.64097189     1.58078081
 C                     4.21227694     2.45468329     0.51282346
 H                     4.24245136    -0.25792690     2.52942068
 C                     3.99305253     0.38038998     1.69063103
 C                     3.32086204     2.00276196    -0.44646345
 C                     2.76349812     0.72569918    -0.36103568
 C                     3.09578036    -0.07244057     0.73460968
 H                     3.03741025     2.62282695    -1.28576979
 H                     2.65957206    -1.05137452     0.85581735
 H                     5.26807658     1.98828789     2.32525596
 H                     4.63930128     3.44570426     0.42059175
 C                     2.33881091    -2.14718175    -1.29834044
 C                     3.63079523    -2.32102838    -1.77410629
 C                     1.78805100    -3.06578859    -0.41639486
 C                     4.37979388    -3.40940214    -1.35241814
 H                     4.04403010    -1.60074176    -2.46979830
 C                     2.54635690    -4.14479176     0.01607857
 H                     0.77367913    -2.91372587    -0.06006966
 C                     3.84181518    -4.31928728    -0.45196786
 H                     5.38483377    -3.54831962    -1.72920334
 H                     2.12139899    -4.85009213     0.71950984
 H                     4.43025694    -5.16513062    -0.12058386
 C                     1.14343494    -1.27698735    -3.18737010
 H                     2.01156138    -1.18242050    -3.84412822
 H                     0.73355053    -2.28271776    -3.26607850
 H                     0.40345024    -0.54200042    -3.48441747

 ==============================================================================
                                internuclear distances
 ------------------------------------------------------------------------------
       center one      |      center two      | atomic units |  angstroms
 ------------------------------------------------------------------------------
    2 O                |   1 C                |     2.34329  |     1.24002
    3 Ni               |   1 C                |     3.78449  |     2.00267
    4 C                |   3 Ni               |     3.51594  |     1.86055
    5 N                |   4 C                |     2.55246  |     1.35070
    6 N                |   4 C                |     2.53577  |     1.34187
    7 C                |   5 N                |     2.76159  |     1.46137
    8 C                |   5 N                |     2.69376  |     1.42548
    9 C                |   6 N                |     2.76790  |     1.46471
    9 C                |   7 C                |     2.89710  |     1.53308
   10 C                |   6 N                |     2.69967  |     1.42860
   11 H                |   7 C                |     2.06218  |     1.09126
   12 H                |   7 C                |     2.06851  |     1.09461
   13 C                |   8 C                |     2.64376  |     1.39902
   14 C                |   8 C                |     2.64439  |     1.39935
   15 H                |   9 C                |     2.06679  |     1.09370
   16 H                |   9 C                |     2.06113  |     1.09070
   17 C                |  10 C                |     2.64093  |     1.39752
   18 C                |  10 C                |     2.64280  |     1.39851
   19 C                |  13 C                |     2.62866  |     1.39103
   20 C                |  13 C                |     2.86391  |     1.51552
   21 C                |  14 C                |     2.62850  |     1.39094
   22 C                |  14 C                |     2.86459  |     1.51588
   23 C                |  17 C                |     2.62726  |     1.39028
   24 C                |  17 C                |     2.86488  |     1.51603
   25 C                |  18 C                |     2.62628  |     1.38977
   26 C                |  18 C                |     2.86482  |     1.51600
   27 C                |  19 C                |     2.61684  |     1.38477
   27 C                |  21 C                |     2.61821  |     1.38550
   28 H                |  19 C                |     2.04729  |     1.08338
   29 C                |  20 C                |     2.89185  |     1.53030
   30 C                |  20 C                |     2.88835  |     1.52845
   31 H                |  20 C                |     2.06241  |     1.09138
   32 H                |  21 C                |     2.04771  |     1.08360
   33 C                |  22 C                |     2.88811  |     1.52832
   34 C                |  22 C                |     2.89247  |     1.53063
   35 H                |  22 C                |     2.06281  |     1.09159
   36 C                |  23 C                |     2.61534  |     1.38398
   36 C                |  25 C                |     2.61668  |     1.38469
   37 H                |  23 C                |     2.04757  |     1.08353
   38 C                |  24 C                |     2.89239  |     1.53059
   39 C                |  24 C                |     2.88666  |     1.52756
   40 H                |  24 C                |     2.06408  |     1.09227
   41 H                |  25 C                |     2.04575  |     1.08256
   42 C                |  26 C                |     2.88835  |     1.52845
   43 C                |  26 C                |     2.89610  |     1.53255
   44 H                |  26 C                |     2.06394  |     1.09219
   45 H                |  27 C                |     2.04637  |     1.08289
   46 H                |  29 C                |     2.06303  |     1.09171
   47 H                |  29 C                |     2.06362  |     1.09202
   48 H                |  29 C                |     2.06260  |     1.09148
   49 H                |  30 C                |     2.06230  |     1.09132
   50 H                |  30 C                |     2.06335  |     1.09188
   51 H                |  30 C                |     2.06442  |     1.09244
   52 H                |  33 C                |     2.06026  |     1.09024
   53 H                |  33 C                |     2.06439  |     1.09243
   54 H                |  33 C                |     2.06333  |     1.09187
   55 H                |  34 C                |     2.06317  |     1.09178
   56 H                |  34 C                |     2.06265  |     1.09151
   57 H                |  34 C                |     2.06410  |     1.09227
   58 H                |  36 C                |     2.04643  |     1.08292
   59 H                |  38 C                |     2.06359  |     1.09200
   60 H                |  38 C                |     2.06345  |     1.09193
   61 H                |  38 C                |     2.06335  |     1.09188
   62 H                |  39 C                |     2.05980  |     1.09000
   63 H                |  39 C                |     2.06493  |     1.09271
   64 H                |  39 C                |     2.06405  |     1.09225
   65 H                |  42 C                |     2.05905  |     1.08960
   66 H                |  42 C                |     2.06474  |     1.09261
   67 H                |  42 C                |     2.06486  |     1.09268
   68 H                |  43 C                |     2.06345  |     1.09193
   69 H                |  43 C                |     2.06371  |     1.09207
   70 H                |  43 C                |     2.06468  |     1.09258
   71 N                |   1 C                |     2.77815  |     1.47013
   71 N                |   3 Ni               |     3.63022  |     1.92103
   73 C                |  72 C                |     2.62229  |     1.38766
   75 C                |  72 C                |     2.62247  |     1.38775
   75 C                |  74 H                |     2.04686  |     1.08315
   76 C                |  73 C                |     2.61786  |     1.38531
   77 C                |   1 C                |     2.85167  |     1.50904
   77 C                |  76 C                |     2.63807  |     1.39601
   78 C                |  75 C                |     2.62130  |     1.38713
   78 C                |  77 C                |     2.63742  |     1.39566
   79 H                |  76 C                |     2.04341  |     1.08132
   80 H                |  78 C                |     2.03817  |     1.07855
   81 H                |  72 C                |     2.04593  |     1.08266
   82 H                |  73 C                |     2.04665  |     1.08304
   83 C                |  71 N                |     2.72765  |     1.44341
   84 C                |  83 C                |     2.62243  |     1.38773
   85 C                |  83 C                |     2.62189  |     1.38744
   86 C                |  84 C                |     2.62078  |     1.38686
   87 H                |  84 C                |     2.04716  |     1.08331
   88 C                |  85 C                |     2.62278  |     1.38792
   89 H                |  85 C                |     2.05193  |     1.08584
   90 C                |  86 C                |     2.62401  |     1.38857
   90 C                |  88 C                |     2.62375  |     1.38843
   91 H                |  86 C                |     2.04525  |     1.08230
   92 H                |  88 C                |     2.04654  |     1.08298
   93 H                |  90 C                |     2.04539  |     1.08237
   94 C                |  71 N                |     2.79041  |     1.47662
   95 H                |  94 C                |     2.06484  |     1.09267
   96 H                |  94 C                |     2.05771  |     1.08890
   97 H                |  94 C                |     2.04930  |     1.08444
 ------------------------------------------------------------------------------
                         number of included internuclear distances:        102
 ==============================================================================



 ==============================================================================
                                 internuclear angles
 ------------------------------------------------------------------------------
        center 1       |       center 2       |       center 3       |  degrees
 ------------------------------------------------------------------------------
    2 O                |   1 C                |   3 Ni               |   111.92
    2 O                |   1 C                |  71 N                |   117.47
    2 O                |   1 C                |  77 C                |   119.34
    1 C                |  71 N                |   3 Ni               |    70.98
    3 Ni               |   1 C                |  77 C                |   107.71
   71 N                |   1 C                |  77 C                |   120.22
    1 C                |   3 Ni               |   4 C                |   136.09
    3 Ni               |  71 N                |   1 C                |    70.98
    4 C                |   3 Ni               |  71 N                |   175.38
    3 Ni               |   4 C                |   5 N                |   120.81
    3 Ni               |   4 C                |   6 N                |   132.25
    5 N                |   4 C                |   6 N                |   106.70
    4 C                |   5 N                |   7 C                |   114.15
    4 C                |   5 N                |   8 C                |   121.76
    7 C                |   5 N                |   8 C                |   123.71
    4 C                |   6 N                |   9 C                |   113.64
    4 C                |   6 N                |  10 C                |   124.38
    9 C                |   6 N                |  10 C                |   121.67
    5 N                |   7 C                |   9 C                |   101.60
    5 N                |   7 C                |  11 H                |   111.02
    5 N                |   7 C                |  12 H                |   110.80
    9 C                |   7 C                |  11 H                |   112.75
    9 C                |   7 C                |  12 H                |   112.48
   11 H                |   7 C                |  12 H                |   108.14
    5 N                |   8 C                |  13 C                |   118.87
    5 N                |   8 C                |  14 C                |   119.30
   13 C                |   8 C                |  14 C                |   121.81
    6 N                |   9 C                |   7 C                |   102.36
    6 N                |   9 C                |  15 H                |   110.10
    6 N                |   9 C                |  16 H                |   110.87
    7 C                |   9 C                |  15 H                |   112.20
    7 C                |   9 C                |  16 H                |   113.05
   15 H                |   9 C                |  16 H                |   108.19
    6 N                |  10 C                |  17 C                |   118.30
    6 N                |  10 C                |  18 C                |   119.64
   17 C                |  10 C                |  18 C                |   122.05
    8 C                |  13 C                |  19 C                |   118.16
    8 C                |  13 C                |  20 C                |   121.75
   19 C                |  13 C                |  20 C                |   120.09
    8 C                |  14 C                |  21 C                |   118.16
    8 C                |  14 C                |  22 C                |   121.80
   21 C                |  14 C                |  22 C                |   120.04
   10 C                |  17 C                |  23 C                |   118.14
   10 C                |  17 C                |  24 C                |   122.00
   23 C                |  17 C                |  24 C                |   119.86
   10 C                |  18 C                |  25 C                |   117.88
   10 C                |  18 C                |  26 C                |   121.91
   25 C                |  18 C                |  26 C                |   120.16
   13 C                |  19 C                |  27 C                |   120.89
   13 C                |  19 C                |  28 H                |   119.55
   27 C                |  19 C                |  28 H                |   119.57
   13 C                |  20 C                |  29 C                |   110.69
   13 C                |  20 C                |  30 C                |   111.63
   13 C                |  20 C                |  31 H                |   107.67
   29 C                |  20 C                |  30 C                |   111.27
   29 C                |  20 C                |  31 H                |   108.10
   30 C                |  20 C                |  31 H                |   107.28
   14 C                |  21 C                |  27 C                |   120.86
   14 C                |  21 C                |  32 H                |   119.56
   27 C                |  21 C                |  32 H                |   119.57
   14 C                |  22 C                |  33 C                |   111.73
   14 C                |  22 C                |  34 C                |   110.55
   14 C                |  22 C                |  35 H                |   107.94
   33 C                |  22 C                |  34 C                |   111.09
   33 C                |  22 C                |  35 H                |   106.97
   34 C                |  22 C                |  35 H                |   108.38
   17 C                |  23 C                |  36 C                |   120.74
   17 C                |  23 C                |  37 H                |   119.57
   36 C                |  23 C                |  37 H                |   119.69
   17 C                |  24 C                |  38 C                |   111.04
   17 C                |  24 C                |  39 C                |   111.21
   17 C                |  24 C                |  40 H                |   107.91
   38 C                |  24 C                |  39 C                |   111.22
   38 C                |  24 C                |  40 H                |   108.05
   39 C                |  24 C                |  40 H                |   107.22
   18 C                |  25 C                |  36 C                |   121.00
   18 C                |  25 C                |  41 H                |   119.49
   36 C                |  25 C                |  41 H                |   119.51
   18 C                |  26 C                |  42 C                |   112.58
   18 C                |  26 C                |  43 C                |   110.00
   18 C                |  26 C                |  44 H                |   107.77
   42 C                |  26 C                |  43 C                |   110.54
   42 C                |  26 C                |  44 H                |   107.33
   43 C                |  26 C                |  44 H                |   108.46
   19 C                |  27 C                |  21 C                |   120.10
   19 C                |  27 C                |  45 H                |   119.93
   21 C                |  27 C                |  45 H                |   119.97
   20 C                |  29 C                |  46 H                |   111.29
   20 C                |  29 C                |  47 H                |   111.03
   20 C                |  29 C                |  48 H                |   110.51
   46 H                |  29 C                |  47 H                |   107.65
   46 H                |  29 C                |  48 H                |   108.36
   47 H                |  29 C                |  48 H                |   107.87
   20 C                |  30 C                |  49 H                |   110.51
   20 C                |  30 C                |  50 H                |   110.44
   20 C                |  30 C                |  51 H                |   111.32
   49 H                |  30 C                |  50 H                |   108.39
   49 H                |  30 C                |  51 H                |   108.32
   50 H                |  30 C                |  51 H                |   107.76
   22 C                |  33 C                |  52 H                |   110.59
   22 C                |  33 C                |  53 H                |   111.44
   22 C                |  33 C                |  54 H                |   110.33
   52 H                |  33 C                |  53 H                |   108.39
   52 H                |  33 C                |  54 H                |   108.22
   53 H                |  33 C                |  54 H                |   107.76
   22 C                |  34 C                |  55 H                |   111.43
   22 C                |  34 C                |  56 H                |   110.66
   22 C                |  34 C                |  57 H                |   110.76
   55 H                |  34 C                |  56 H                |   108.41
   55 H                |  34 C                |  57 H                |   107.54
   56 H                |  34 C                |  57 H                |   107.91
   23 C                |  36 C                |  25 C                |   120.17
   23 C                |  36 C                |  58 H                |   119.94
   25 C                |  36 C                |  58 H                |   119.89
   24 C                |  38 C                |  59 H                |   111.53
   24 C                |  38 C                |  60 H                |   110.90
   24 C                |  38 C                |  61 H                |   110.58
   59 H                |  38 C                |  60 H                |   107.51
   59 H                |  38 C                |  61 H                |   108.40
   60 H                |  38 C                |  61 H                |   107.78
   24 C                |  39 C                |  62 H                |   110.91
   24 C                |  39 C                |  63 H                |   110.52
   24 C                |  39 C                |  64 H                |   111.11
   62 H                |  39 C                |  63 H                |   108.62
   62 H                |  39 C                |  64 H                |   107.78
   63 H                |  39 C                |  64 H                |   107.77
   26 C                |  42 C                |  65 H                |   110.80
   26 C                |  42 C                |  66 H                |   111.25
   26 C                |  42 C                |  67 H                |   109.84
   65 H                |  42 C                |  66 H                |   108.20
   65 H                |  42 C                |  67 H                |   109.52
   66 H                |  42 C                |  67 H                |   107.15
   26 C                |  43 C                |  68 H                |   111.96
   26 C                |  43 C                |  69 H                |   110.68
   26 C                |  43 C                |  70 H                |   110.26
   68 H                |  43 C                |  69 H                |   108.41
   68 H                |  43 C                |  70 H                |   107.43
   69 H                |  43 C                |  70 H                |   107.97
    1 C                |  71 N                |   3 Ni               |    70.98
    1 C                |  71 N                |  83 C                |   123.64
    1 C                |  71 N                |  94 C                |   113.14
    3 Ni               |  71 N                |  83 C                |   119.17
    3 Ni               |  71 N                |  94 C                |   114.47
   83 C                |  71 N                |  94 C                |   110.47
   73 C                |  72 C                |  75 C                |   119.33
   73 C                |  72 C                |  81 H                |   120.38
   75 C                |  72 C                |  81 H                |   120.29
   72 C                |  73 C                |  76 C                |   120.28
   72 C                |  73 C                |  82 H                |   120.16
   76 C                |  73 C                |  82 H                |   119.55
   72 C                |  75 C                |  74 H                |   120.14
   72 C                |  75 C                |  78 C                |   120.50
   74 H                |  75 C                |  78 C                |   119.36
   73 C                |  76 C                |  77 C                |   120.86
   73 C                |  76 C                |  79 H                |   121.27
   77 C                |  76 C                |  79 H                |   117.87
    1 C                |  77 C                |  76 C                |   115.02
    1 C                |  77 C                |  78 C                |   126.54
   76 C                |  77 C                |  78 C                |   118.43
   75 C                |  78 C                |  77 C                |   120.56
   75 C                |  78 C                |  80 H                |   118.72
   77 C                |  78 C                |  80 H                |   120.73
   71 N                |  83 C                |  84 C                |   119.80
   71 N                |  83 C                |  85 C                |   119.80
   84 C                |  83 C                |  85 C                |   120.30
   83 C                |  84 C                |  86 C                |   119.79
   83 C                |  84 C                |  87 H                |   119.47
   86 C                |  84 C                |  87 H                |   120.73
   83 C                |  85 C                |  88 C                |   119.73
   83 C                |  85 C                |  89 H                |   119.12
   88 C                |  85 C                |  89 H                |   121.13
   84 C                |  86 C                |  90 C                |   120.14
   84 C                |  86 C                |  91 H                |   119.76
   90 C                |  86 C                |  91 H                |   120.09
   85 C                |  88 C                |  90 C                |   120.16
   85 C                |  88 C                |  92 H                |   119.62
   90 C                |  88 C                |  92 H                |   120.21
   86 C                |  90 C                |  88 C                |   119.85
[...]
  ----- ------------  ---------------      ----- ------------  ---------------
   697      1.596847  77 C  s               701      1.268389  77 C  s         
   698     -1.245066  77 C  s                 6      0.963690   1 C  s         
   634      0.963637  72 C  s               696     -0.936527  77 C  s         
     2      0.917750   1 C  s               699      0.918363  77 C  s         
   700     -0.916817  77 C  s               352     -0.874459  26 C  s         

 Vector  847  Occ=0.000000D+00  E= 6.330365D+01
              MO Center=  1.0D+00,  2.9D-01, -6.4D-01, r^2= 9.2D+00
   Bfn.  Coefficient  Atom+Function         Bfn.  Coefficient  Atom+Function  
  ----- ------------  ---------------      ----- ------------  ---------------
     6      2.545649   1 C  s                 2      2.008670   1 C  s         
     3     -1.576603   1 C  s                 5     -1.358555   1 C  s         
     4      1.224869   1 C  s                 1     -1.175235   1 C  s         
    45     -0.943776   3 Ni px              701     -0.787881  77 C  s         
    74     -0.735980   4 C  s               217      0.706236  17 C  s         

 Vector  848  Occ=0.000000D+00  E= 6.332310D+01
              MO Center= -2.0D-01, -1.5D-01,  2.2D-01, r^2= 1.6D+01
   Bfn.  Coefficient  Atom+Function         Bfn.  Coefficient  Atom+Function  
  ----- ------------  ---------------      ----- ------------  ---------------
   142      1.115555   8 C  py              326     -1.107910  24 C  s         
   322     -1.042891  24 C  s               292      1.001086  22 C  s         
   296      1.001297  22 C  s               266      0.989086  20 C  s         
   356     -0.992386  26 C  s               352     -0.967115  26 C  s         
   262      0.926361  20 C  s               769      0.916588  85 C  s         

 Vector  849  Occ=0.000000D+00  E= 6.332688D+01
              MO Center=  3.0D+00,  8.2D-01,  3.1D-01, r^2= 3.9D+00
   Bfn.  Coefficient  Atom+Function         Bfn.  Coefficient  Atom+Function  
  ----- ------------  ---------------      ----- ------------  ---------------
   716      2.091601  78 C  s               712      1.924084  78 C  s         
   682     -1.552659  76 C  s               686     -1.507066  76 C  s         
   713     -1.501520  78 C  s               710     -1.259399  77 C  pz        
   683      1.206443  76 C  s               715     -1.189025  78 C  s         
   711     -1.128057  78 C  s               714      1.127011  78 C  s         

 Vector  850  Occ=0.000000D+00  E= 6.333017D+01
              MO Center=  2.0D+00, -9.1D-01, -3.4D-01, r^2= 1.1D+01
   Bfn.  Coefficient  Atom+Function         Bfn.  Coefficient  Atom+Function  
  ----- ------------  ---------------      ----- ------------  ---------------
   701      1.403941  77 C  s               697      1.284080  77 C  s         
   769      1.202741  85 C  s               773      1.109005  85 C  s         
   698     -1.002306  77 C  s               770     -0.938411  85 C  s         
   758     -0.816825  84 C  s               700     -0.806007  77 C  s         
   739     -0.802271  83 C  s               784      0.803339  86 C  s         

 Vector  851  Occ=0.000000D+00  E= 6.340427D+01
              MO Center= -1.7D+00, -1.8D+00,  8.6D-01, r^2= 7.1D+00
   Bfn.  Coefficient  Atom+Function         Bfn.  Coefficient  Atom+Function  
  ----- ------------  ---------------      ----- ------------  ---------------
   185      2.133950  13 C  s               143      1.912319   8 C  pz        
   200     -1.909369  14 C  s               196     -1.641167  14 C  s         
   181      1.620921  13 C  s               209      1.344220  14 C  pz        
   194      1.336979  13 C  pz              197      1.292411  14 C  s         
   182     -1.275041  13 C  s               296     -1.237357  22 C  s         

 Vector  852  Occ=0.000000D+00  E= 6.342362D+01
              MO Center= -1.6D+00, -1.4D+00,  5.0D-01, r^2= 1.1D+01
   Bfn.  Coefficient  Atom+Function         Bfn.  Coefficient  Atom+Function  
  ----- ------------  ---------------      ----- ------------  ---------------
   134      2.706739   8 C  s               130      1.681364   8 C  s         
   142     -1.582342   8 C  py              131     -1.325657   8 C  s         
   281     -1.243881  21 C  s               164     -1.201182  10 C  s         
   133     -1.179960   8 C  s               251     -1.144495  19 C  s         
   277     -1.123665  21 C  s               247     -1.099682  19 C  s         

 Vector  853  Occ=0.000000D+00  E= 6.342728D+01
              MO Center= -1.0D+00,  2.0D+00, -2.1D-01, r^2= 9.9D+00
   Bfn.  Coefficient  Atom+Function         Bfn.  Coefficient  Atom+Function  
  ----- ------------  ---------------      ----- ------------  ---------------
   173      1.967498  10 C  pz              236      1.822900  18 C  s         
   221     -1.765199  17 C  s               245      1.715127  18 C  pz        
   232      1.482315  18 C  s               217     -1.407822  17 C  s         
   356      1.331727  26 C  s               233     -1.167659  18 C  s         
   134     -1.150775   8 C  s               218      1.108702  17 C  s         

 Vector  854  Occ=0.000000D+00  E= 6.344403D+01
              MO Center= -5.9D-01,  2.7D+00, -9.7D-02, r^2= 7.4D+00
   Bfn.  Coefficient  Atom+Function         Bfn.  Coefficient  Atom+Function  
  ----- ------------  ---------------      ----- ------------  ---------------
   164      2.916008  10 C  s               160      1.782328  10 C  s         
   161     -1.406348  10 C  s               230      1.332173  17 C  pz        
   221     -1.314387  17 C  s               163     -1.265269  10 C  s         
   172      1.196862  10 C  py              311     -1.170090  23 C  s         
   341     -1.128691  25 C  s               162      1.108047  10 C  s         

 Vector  855  Occ=0.000000D+00  E= 6.355211D+01
              MO Center=  2.8D+00, -3.0D+00, -8.3D-01, r^2= 3.3D+00
   Bfn.  Coefficient  Atom+Function         Bfn.  Coefficient  Atom+Function  
  ----- ------------  ---------------      ----- ------------  ---------------
   743      2.846080  83 C  s               773     -2.625775  85 C  s         
   806      2.335040  88 C  s               788      2.311366  86 C  s         
   758     -2.266999  84 C  s               824     -2.253609  90 C  s         
   780     -1.504016  85 C  px              739      1.390830  83 C  s         
   769     -1.324197  85 C  s               751     -1.229902  83 C  py        

 Vector  856  Occ=0.000000D+00  E= 6.357398D+01
              MO Center=  3.3D+00,  9.0D-01,  4.7D-01, r^2= 3.9D+00
   Bfn.  Coefficient  Atom+Function         Bfn.  Coefficient  Atom+Function  
  ----- ------------  ---------------      ----- ------------  ---------------
   716     -2.764907  78 C  s               701      2.708587  77 C  s         
   671      2.449562  75 C  s               653      2.314549  73 C  s         
   638     -2.273206  72 C  s               686     -2.279608  76 C  s         
   724     -1.738392  78 C  py              710      1.524062  77 C  pz        
   697      1.369226  77 C  s               712     -1.270863  78 C  s         

 Vector  857  Occ=0.000000D+00  E= 6.359407D+01
              MO Center= -1.7D+00, -2.8D+00,  7.9D-01, r^2= 4.0D+00
   Bfn.  Coefficient  Atom+Function         Bfn.  Coefficient  Atom+Function  
  ----- ------------  ---------------      ----- ------------  ---------------
   134      3.461007   8 C  s               200     -2.991629  14 C  s         
   185     -2.946927  13 C  s               281      2.666020  21 C  s         
   251      2.616355  19 C  s               371     -2.432022  27 C  s         
   142     -2.299703   8 C  py              209      1.687539  14 C  pz        
   194     -1.577330  13 C  pz              130      1.389337   8 C  s         

 Vector  858  Occ=0.000000D+00  E= 6.360998D+01
              MO Center= -4.5D-01,  3.6D+00, -2.6D-01, r^2= 2.5D+00
   Bfn.  Coefficient  Atom+Function         Bfn.  Coefficient  Atom+Function  
  ----- ------------  ---------------      ----- ------------  ---------------
   164      3.616719  10 C  s               236     -3.190494  18 C  s         
   221     -2.995631  17 C  s               311      2.786774  23 C  s         
   341      2.728007  25 C  s               458     -2.570958  36 C  s         
   230      2.137768  17 C  pz              172      1.977695  10 C  py        
   245     -1.571944  18 C  pz              350      1.566809  25 C  pz        

 Vector  859  Occ=0.000000D+00  E= 8.882308D+01
              MO Center= -1.6D+00,  1.5D-01,  4.3D-01, r^2= 3.1D+00
   Bfn.  Coefficient  Atom+Function         Bfn.  Coefficient  Atom+Function  
  ----- ------------  ---------------      ----- ------------  ---------------
    85      2.257834   5 N  s                86     -1.757998   5 N  s         
   142     -1.757487   8 C  py              100     -1.686682   6 N  s         
    89      1.534480   5 N  s                84      1.326281   5 N  s         
   101      1.313044   6 N  s                87      1.240555   5 N  s         
    88     -1.190434   5 N  s               104     -1.184932   6 N  s         

 Vector  860  Occ=0.000000D+00  E= 8.884008D+01
              MO Center=  1.0D+00, -6.5D-01, -1.4D+00, r^2= 3.1D+00
   Bfn.  Coefficient  Atom+Function         Bfn.  Coefficient  Atom+Function  
  ----- ------------  ---------------      ----- ------------  ---------------
   619      2.741804  71 N  s               620     -2.137532  71 N  s         
   623      1.958040  71 N  s               618      1.609846  71 N  s         
   621      1.518619  71 N  s               622     -1.478783  71 N  s         
   100     -1.134287   6 N  s               751     -1.049606  83 C  py        
   101      0.884013   6 N  s               104     -0.824448   6 N  s         

 Vector  861  Occ=0.000000D+00  E= 8.888172D+01
              MO Center= -1.8D+00,  6.4D-01,  5.2D-01, r^2= 2.1D+00
   Bfn.  Coefficient  Atom+Function         Bfn.  Coefficient  Atom+Function  
  ----- ------------  ---------------      ----- ------------  ---------------
   100      2.191417   6 N  s                85      1.925821   5 N  s         
   101     -1.712058   6 N  s               104      1.581855   6 N  s         
    86     -1.504745   5 N  s                89      1.370087   5 N  s         
   172      1.355512  10 C  py               99      1.285669   6 N  s         
   102      1.225887   6 N  s               103     -1.189735   6 N  s         

 Vector  862  Occ=0.000000D+00  E= 1.172031D+02
              MO Center=  1.4D-01, -3.5D-01, -6.7D-01, r^2= 3.8D-02
   Bfn.  Coefficient  Atom+Function         Bfn.  Coefficient  Atom+Function  
  ----- ------------  ---------------      ----- ------------  ---------------
    38      0.927843   3 Ni pz               36      0.483689   3 Ni px        
    41     -0.353710   3 Ni pz              671      0.341435  75 C  s         
   723     -0.288398  78 C  px              724     -0.254928  78 C  py        
   716     -0.240087  78 C  s               725     -0.212321  78 C  pz        
    37     -0.197467   3 Ni py               44      0.187779   3 Ni pz        

 Vector  863  Occ=0.000000D+00  E= 1.172623D+02
              MO Center=  1.4D-01, -3.5D-01, -6.7D-01, r^2= 3.5D-02
   Bfn.  Coefficient  Atom+Function         Bfn.  Coefficient  Atom+Function  
  ----- ------------  ---------------      ----- ------------  ---------------
    37      1.038592   3 Ni py                6     -0.416108   1 C  s         
    40     -0.400255   3 Ni py               14      0.253519   1 C  py        
   142      0.253682   8 C  py              134     -0.250225   8 C  s         
   185      0.234000  13 C  s               623      0.232373  71 N  s         
   208     -0.220829  14 C  py               43      0.219726   3 Ni py        

 Vector  864  Occ=0.000000D+00  E= 1.173758D+02
              MO Center=  1.4D-01, -3.5D-01, -6.7D-01, r^2= 3.7D-02
   Bfn.  Coefficient  Atom+Function         Bfn.  Coefficient  Atom+Function  
  ----- ------------  ---------------      ----- ------------  ---------------
    36      0.926586   3 Ni px               38     -0.510748   3 Ni pz        
     6     -0.507934   1 C  s                39     -0.364492   3 Ni px        
   709     -0.331981  77 C  py               14      0.321676   1 C  py        
    35     -0.291381   3 Ni s                82     -0.279107   4 C  py        
    81      0.250039   4 C  px              686      0.245856  76 C  s         

 Vector  865  Occ=0.000000D+00  E= 1.187344D+02
              MO Center=  1.6D+00,  1.2D+00, -2.4D+00, r^2= 6.0D-02
   Bfn.  Coefficient  Atom+Function         Bfn.  Coefficient  Atom+Function  
  ----- ------------  ---------------      ----- ------------  ---------------
    17      2.979625   2 O  s                18     -2.301597   2 O  s         
    16     -1.757192   2 O  s                19      1.519563   2 O  s         
    20     -1.266833   2 O  s                21      1.091372   2 O  s         
     6     -0.784536   1 C  s                15      0.429908   1 C  pz        
    14     -0.417152   1 C  py               13      0.308762   1 C  px        

 Vector  866  Occ=0.000000D+00  E= 6.703829D+02
              MO Center=  1.4D-01, -3.5D-01, -6.7D-01, r^2= 2.5D-02
   Bfn.  Coefficient  Atom+Function         Bfn.  Coefficient  Atom+Function  
  ----- ------------  ---------------      ----- ------------  ---------------
    32     28.726721   3 Ni s                33    -15.171425   3 Ni s         
    51     -7.282362   3 Ni dxx              54     -7.283918   3 Ni dyy       
    56     -7.283727   3 Ni dzz              31     -4.264689   3 Ni s         
    57      3.321193   3 Ni dxx              60      3.326701   3 Ni dyy       
    62      3.325997   3 Ni dzz              34      0.675044   3 Ni s         


 center of mass
 --------------
 x =   0.06506331 y =  -0.01426855 z =  -0.03198635

 moments of inertia (a.u.)
 ------------------
       24246.554557993397           0.000000000002           0.000000000002
           0.000000000002       21540.723199801436           0.000000000001
           0.000000000002           0.000000000001       29510.490401990766

     Multipole analysis of the density
     ---------------------------------

     L   x y z        total         alpha         beta         nuclear
     -   - - -        -----         -----         ----         -------
     0   0 0 0      0.000000   -172.000000   -172.000000    344.000000

     1   1 0 0     -1.154483      0.744406      0.744406     -2.643296
     1   0 1 0     -0.963368     -3.750374     -3.750374      6.537380
     1   0 0 1      1.155237     -5.734906     -5.734906     12.625050

     2   2 0 0   -205.821472  -3821.300755  -3821.300755   7436.780037
     2   1 1 0     -3.611884     -5.325399     -5.325399      7.038913
     2   1 0 1      1.289163    -49.431297    -49.431297    100.151757
     2   0 2 0   -206.095186  -4550.018721  -4550.018721   8893.942256
     2   0 1 1      3.423285      0.343539      0.343539      2.736208
     2   0 0 2   -211.931580  -2470.690353  -2470.690353   4729.449127


 Task  times  cpu:     1814.4s     wall:     1814.4s


                                NWChem Input Module
                                -------------------


 Summary of allocated global arrays
-----------------------------------
  No active global arrays


MA_summarize_allocated_blocks: starting scan ...
heap block 'gridpts', handle 108, address 0x65412f7205a0:
	type of elements:		double precision
	number of elements:		203677165
	address of client space:	0x65412f720600
	index for client space:		141265819
	total number of bytes:		1629417424
MA_summarize_allocated_blocks: scan completed: 1 heap block, 0 stack blocks
MA usage statistics:

	allocation statistics:
					      heap	     stack
					      ----	     -----
	current number of blocks	         1	         0
	maximum number of blocks	        37	        58
	current total bytes		1629417424	         0
	maximum total bytes		1649038168	  58954808
	maximum total K-bytes		   1649039	     58955
	maximum total M-bytes		      1650	        59


                                     CITATION
                                     --------
                Please cite the following reference when publishing
                           results obtained with NWChem:

          E. Apra, E. J. Bylaska, W. A. de Jong, N. Govind, K. Kowalski,
       T. P. Straatsma, M. Valiev, H. J. J. van Dam, Y. Alexeev, J. Anchell,
       V. Anisimov, F. W. Aquino, R. Atta-Fynn, J. Autschbach, N. P. Bauman,
     J. C. Becca, D. E. Bernholdt, K. Bhaskaran-Nair, S. Bogatko, P. Borowski,
         J. Boschen, J. Brabec, A. Bruner, E. Cauet, Y. Chen, G. N. Chuev,
      C. J. Cramer, J. Daily, M. J. O. Deegan, T. H. Dunning Jr., M. Dupuis,
   K. G. Dyall, G. I. Fann, S. A. Fischer, A. Fonari, H. Fruchtl, L. Gagliardi,
      J. Garza, N. Gawande, S. Ghosh, K. Glaesemann, A. W. Gotz, J. Hammond,
       V. Helms, E. D. Hermes, K. Hirao, S. Hirata, M. Jacquelin, L. Jensen,
   B. G. Johnson, H. Jonsson, R. A. Kendall, M. Klemm, R. Kobayashi, V. Konkov,
      S. Krishnamoorthy, M. Krishnan, Z. Lin, R. D. Lins, R. J. Littlefield,
      A. J. Logsdail, K. Lopata, W. Ma, A. V. Marenich, J. Martin del Campo,
   D. Mejia-Rodriguez, J. E. Moore, J. M. Mullin, T. Nakajima, D. R. Nascimento,
    J. A. Nichols, P. J. Nichols, J. Nieplocha, A. Otero-de-la-Roza, B. Palmer,
    A. Panyala, T. Pirojsirikul, B. Peng, R. Peverati, J. Pittner, L. Pollack,
   R. M. Richard, P. Sadayappan, G. C. Schatz, W. A. Shelton, D. W. Silverstein,
   D. M. A. Smith, T. A. Soares, D. Song, M. Swart, H. L. Taylor, G. S. Thomas,
            V. Tipparaju, D. G. Truhlar, K. Tsemekhman, T. Van Voorhis,
      A. Vazquez-Mayagoitia, P. Verma, O. Villa, A. Vishnu, K. D. Vogiatzis,
        D. Wang, J. H. Weare, M. J. Williamson, T. L. Windus, K. Wolinski,
        A. T. Wong, Q. Wu, C. Yang, Q. Yu, M. Zacharias, Z. Zhang, Y. Zhao,
                                and R. J. Harrison
                        "NWChem: Past, present, and future
                         J. Chem. Phys. 152, 184102 (2020)
                               doi:10.1063/5.0004997

                                      AUTHORS
                                      -------
  E. Apra, E. J. Bylaska, N. Govind, K. Kowalski, M. Valiev, D. Mejia-Rodriguez,
       A. Kunitsa, N. P. Bauman, A. Panyala, W. A. de Jong, T. P. Straatsma,
   H. J. J. van Dam, D. Wang, T. L. Windus, J. Hammond, J. Autschbach, A. Woods,
    K. Bhaskaran-Nair, J. Brabec, K. Lopata, S. A. Fischer, S. Krishnamoorthy,
     M. Jacquelin, W. Ma, M. Klemm, O. Villa, Y. Chen, V. Anisimov, F. Aquino,
     S. Hirata, M. T. Hackler, E. Hermes, L. Jensen, J. E. Moore, J. C. Becca,
      V. Konjkov, T. Risthaus, M. Malagoli, A. Marenich, A. Otero-de-la-Roza,
        J. Mullin, P. Nichols, R. Peverati, J. Pittner, Y. Zhao, P.-D. Fan,
        A. Fonari, M. J. Williamson, R. J. Harrison, J. R. Rehr, M. Dupuis,
     D. Silverstein, D. M. A. Smith, J. Nieplocha, V. Tipparaju, M. Krishnan,
     B. E. Van Kuiken, A. Vazquez-Mayagoitia, M. Swart, Q. Wu, T. Van Voorhis,
     A. A. Auer, M. Nooijen, L. D. Crosby, E. Brown, G. Cisneros, G. I. Fann,
   H. Fruchtl, J. Garza, K. Hirao, R. A. Kendall, J. A. Nichols, K. Tsemekhman,
    K. Wolinski, J. Anchell, D. E. Bernholdt, P. Borowski, T. Clark, D. Clerc,
   H. Dachsel, M. J. O. Deegan, K. Dyall, D. Elwood, E. Glendening, M. Gutowski,
   A. C. Hess, J. Jaffe, B. G. Johnson, J. Ju, R. Kobayashi, R. Kutteh, Z. Lin,
   R. Littlefield, X. Long, B. Meng, T. Nakajima, S. Niu, L. Pollack, M. Rosing,
   K. Glaesemann, G. Sandrone, M. Stave, H. Taylor, G. Thomas, J. H. van Lenthe,
                               A. T. Wong, Z. Zhang.

 Total times  cpu:     1815.0s     wall:     1815.0s
