 argument  1 = nwchem.in
  NWChem w/ OpenMP: maximum threads =    1
                                         
                                         


             Northwest Computational Chemistry Package (NWChem) 7.2.3
             --------------------------------------------------------


                    Environmental Molecular Sciences Laboratory
                       Pacific Northwest National Laboratory
                                Richland, WA 99352

                              Copyright (c) 1994-2022
                       Pacific Northwest National Laboratory
                            Battelle Memorial Institute

             NWChem is an open-source computational chemistry package
                        distributed under the terms of the
                      Educational Community License (ECL) 2.0
             A copy of the license is included with this distribution
                              in the LICENSE.TXT file

                                  ACKNOWLEDGMENT
                                  --------------

            This software and its documentation were developed at the
            EMSL at Pacific Northwest National Laboratory, a multiprogram
            national laboratory, operated for the U.S. Department of Energy
            by Battelle under Contract Number DE-AC05-76RL01830. Support
            for this work was provided by the Department of Energy Office
            of Biological and Environmental Research, Office of Basic
            Energy Sciences, and the Office of Advanced Scientific Computing.


           Job information
           ---------------

    hostname        = d1ebb4ce0b40
    program         = nwchem
    date            = Wed Jul  2 21:22:10 2025

    compiled        = Fri_May_02_22:05:35_2025
    source          = /opt/nwchem
    nwchem branch   = 7.2.3
    nwchem revision = N/A
    ga revision     = 5.9.1
    use scalapack   = T
    input           = nwchem.in
    prefix          = ni_singlepoint.
    data base       = ./ni_singlepoint.db
    status          = startup
    nproc           =        5
    time left       =     -1s



           Memory information
           ------------------

    heap     =    509724444 doubles =     3888.9 Mbytes
    stack    =    509724445 doubles =     3888.9 Mbytes
    global   =    291271111 doubles =     2222.2 Mbytes (distinct from heap & stack)
    total    =   1310720000 doubles =    10000.0 Mbytes
    verify   = yes
    hardfail = no 


           Directory information
           ---------------------

  0 permanent = .
  0 scratch   = .




                                NWChem Input Module
                                -------------------


                          Ni complex single-point energy
                          ------------------------------

 Scaling coordinates for geometry "geometry" by  1.889725989
 (inverse scale =  0.529177249)

 C1  symmetry detected

          ------
          auto-z
          ------
  no constraints, skipping    0.0000000000000000     
  no constraints, skipping    0.0000000000000000     


                             Geometry "geometry" -> ""
                             -------------------------

 Output coordinates in angstroms (scale by  1.889725989 to convert to a.u.)

  No.       Tag          Charge          X              Y              Z
 ---- ---------------- ---------- -------------- -------------- --------------
    1 C                    6.0000     1.78235625     0.33499094    -1.45079700
    2 O                    8.0000     1.55246285     1.18966756    -2.32159776
    3 Ni                  28.0000     0.10190835    -0.36723416    -0.69303541
    4 C                    6.0000    -1.27120932     0.40384337     0.28882365
    5 N                    7.0000    -2.22630383    -0.37571256     0.83776688
    6 N                    7.0000    -1.63216799     1.67608083     0.50952296
    7 C                    6.0000    -3.27652633     0.36479405     1.53275808
    8 C                    6.0000    -2.11802351    -1.79743127     0.83993129
    9 C                    6.0000    -2.95038567     1.80981444     1.13460252
   10 C                    6.0000    -0.88989856     2.81845239     0.07660483
   11 H                    1.0000    -4.26513962     0.04810243     1.19625815
   12 H                    1.0000    -3.21603285     0.20402916     2.61346330
   13 C                    6.0000    -2.64590949    -2.51745469    -0.23755025
   14 C                    6.0000    -1.45859761    -2.43199121     1.89894808
   15 H                    1.0000    -3.66743732     2.21171382     0.41352977
   16 H                    1.0000    -2.90819572     2.48817611     1.98749042
   17 C                    6.0000    -0.08715523     3.48010510     1.01030704
   18 C                    6.0000    -1.00260849     3.25628119    -1.24693466
   19 C                    6.0000    -2.48186639    -3.89887398    -0.24710840
   20 C                    6.0000    -3.39074148    -1.83312638    -1.36627569
   21 C                    6.0000    -1.32812777    -3.81606938     1.85609285
   22 C                    6.0000    -0.89693335    -1.65236534     3.07141928
   23 C                    6.0000     0.63352945     4.59078463     0.58583203
   24 C                    6.0000     0.00280762     3.03064702     2.45555289
   25 C                    6.0000    -0.26371420     4.36977851    -1.62858759
   26 C                    6.0000    -1.93924702     2.58926496    -2.23483867
   27 C                    6.0000    -1.82772392    -4.54442838     0.78855834
   28 H                    1.0000    -2.86976851    -4.47712099    -1.07703088
   29 C                    6.0000    -4.86159831    -2.25578619    -1.37221654
   30 C                    6.0000    -2.73363810    -2.09502285    -2.72131230
   31 H                    1.0000    -3.34743450    -0.75737789    -1.18772699
   32 H                    1.0000    -0.82029501    -4.33044963     2.66335358
   33 C                    6.0000     0.59484824    -1.92028804     3.26906674
   34 C                    6.0000    -1.68320497    -1.96114926     4.34761111
   35 H                    1.0000    -1.00313621    -0.58887873     2.84906460
   36 C                    6.0000     0.55076414     5.02969924    -0.72403681
   37 H                    1.0000     1.27082661     5.11506983     1.28800100
   38 C                    6.0000    -0.55622873     4.10036795     3.39729146
   39 C                    6.0000     1.43475223     2.65739463     2.83505387
   40 H                    1.0000    -0.60595843     2.13041231     2.56564040
   41 H                    1.0000    -0.32139813     4.72324412    -2.65021637
   42 C                    6.0000    -1.27936234     2.33050754    -3.58905756
   43 C                    6.0000    -3.20628579     3.43374956    -2.40887100
   44 H                    1.0000    -2.22377199     1.61943013    -1.82091885
   45 H                    1.0000    -1.70782995    -5.62037716     0.76440532
   46 H                    1.0000    -5.33465001    -2.05617102    -0.40877356
   47 H                    1.0000    -4.96030857    -3.32442114    -1.57436785
   48 H                    1.0000    -5.41232708    -1.71564336    -2.14434521
   49 H                    1.0000    -1.69331229    -1.76461847    -2.71425218
   50 H                    1.0000    -3.26035774    -1.55400383    -3.51001339
   51 H                    1.0000    -2.75437322    -3.15715374    -2.97564001
   52 H                    1.0000     1.15162282    -1.68537698     2.36208634
   53 H                    1.0000     0.78291879    -2.96491588     3.52718509
   54 H                    1.0000     0.98683726    -1.30178025     4.07893801
   55 H                    1.0000    -2.74881526    -1.76252103     4.21776765
   56 H                    1.0000    -1.31852850    -1.35730010     5.18049024
   57 H                    1.0000    -1.57532428    -3.01287428     4.62210560
   58 H                    1.0000     1.12221326     5.89295706    -1.04195071
   59 H                    1.0000    -1.58333744     4.36617487     3.13866105
   60 H                    1.0000     0.04140067     5.01292988     3.34725380
   61 H                    1.0000    -0.54113175     3.74795501     4.43064863
   62 H                    1.0000     1.82628971     1.88705328     2.17094751
   63 H                    1.0000     1.47275169     2.28485602     3.86156417
   64 H                    1.0000     2.09783091     3.52293245     2.77057239
   65 H                    1.0000    -0.33317019     1.80559246    -3.46262178
   66 H                    1.0000    -1.08443701     3.26526407    -4.12012112
   67 H                    1.0000    -1.94618283     1.73581949    -4.21808483
   68 H                    1.0000    -3.70495062     3.62434099    -1.45638750
   69 H                    1.0000    -3.91342994     2.93450832    -3.07470203
   70 H                    1.0000    -2.95724212     4.40293948    -2.84752575
   71 N                    7.0000     1.49362628    -1.07877530    -1.80145992
   72 C                    6.0000     4.63923964     1.45839830     1.56477212
   73 C                    6.0000     4.31010198     2.30013262     0.51150137
   74 H                    1.0000     4.22952972    -0.42588275     2.51003575
   75 C                    6.0000     3.99987105     0.23220887     1.68109209
   76 C                    6.0000     3.37415188     1.90688657    -0.43204205
   77 C                    6.0000     2.75474421     0.65869770    -0.34480956
   78 C                    6.0000     3.05975589    -0.16096312     0.74063668
   79 H                    1.0000     3.10563905     2.55186609    -1.25772985
   80 H                    1.0000     2.56449178    -1.11096138     0.86176901
   81 H                    1.0000     5.38218864     1.75761390     2.29319415
   82 H                    1.0000     4.79116393     3.26613744     0.41820404
   83 C                    6.0000     2.25063989    -2.21338137    -1.32389339
   84 C                    6.0000     3.51302387    -2.46784469    -1.84287918
   85 C                    6.0000     1.68861262    -3.09290172    -0.40761278
   86 C                    6.0000     4.22161582    -3.58573697    -1.42850169
   87 H                    1.0000     3.93564044    -1.78859205    -2.57255083
   88 C                    6.0000     2.40945144    -4.19948107     0.02175952
   89 H                    1.0000     0.69358814    -2.89442879    -0.02084597
   90 C                    6.0000     3.67675110    -4.44840246    -0.48705256
   91 H                    1.0000     5.20149613    -3.78387975    -1.84317039
   92 H                    1.0000     1.97645317    -4.86998519     0.75417510
   93 H                    1.0000     4.23646324    -5.31443104    -0.15724356
   94 C                    6.0000     1.13937680    -1.24721061    -3.22487508
   95 H                    1.0000     2.02567745    -1.13094001    -3.85294718
   96 H                    1.0000     0.72331534    -2.24407431    -3.36188501
   97 H                    1.0000     0.41627510    -0.49223749    -3.51256748

      Atomic Mass 
      ----------- 

      C                 12.000000
      O                 15.994910
      Ni                57.935300
      N                 14.003070
      H                  1.007825


 Effective nuclear repulsion energy (a.u.)    7263.9902669865

            Nuclear Dipole moment (a.u.) 
            ----------------------------
        X                 Y               Z
 ---------------- ---------------- ----------------
     0.0000000000    -0.0000000000     0.0000000000



                                Z-matrix (autoz)
                                -------- 

 Units are Angstrom for bonds and degrees for angles

      Type          Name      I     J     K     L     M      Value
      ----------- --------  ----- ----- ----- ----- ----- ----------
    1 Stretch                  1     2                       1.24162
    2 Stretch                  1     3                       1.97262
    3 Stretch                  1    71                       1.48495
    4 Stretch                  1    77                       1.50782
    5 Stretch                  3     4                       1.85582
    6 Stretch                  3    71                       1.91619
    7 Stretch                  4     5                       1.34954
    8 Stretch                  4     6                       1.34074
    9 Stretch                  5     7                       1.46093
   10 Stretch                  5     8                       1.42584
   11 Stretch                  6     9                       1.46503
   12 Stretch                  6    10                       1.42947
   13 Stretch                  7     9                       1.53394
   14 Stretch                  7    11                       1.09128
   15 Stretch                  7    12                       1.09427
   16 Stretch                  8    13                       1.39931
   17 Stretch                  8    14                       1.39965
   18 Stretch                  9    15                       1.09345
   19 Stretch                  9    16                       1.09058
   20 Stretch                 10    17                       1.39785
   21 Stretch                 10    18                       1.39863
   22 Stretch                 13    19                       1.39116
   23 Stretch                 13    20                       1.51562
   24 Stretch                 14    21                       1.39087
   25 Stretch                 14    22                       1.51591
   26 Stretch                 17    23                       1.39039
   27 Stretch                 17    24                       1.51619
   28 Stretch                 18    25                       1.38978
   29 Stretch                 18    26                       1.51597
   30 Stretch                 19    27                       1.38465
   31 Stretch                 19    28                       1.08333
   32 Stretch                 20    29                       1.53039
   33 Stretch                 20    30                       1.52856
   34 Stretch                 20    31                       1.09132
   35 Stretch                 21    27                       1.38554
   36 Stretch                 21    32                       1.08358
   37 Stretch                 22    33                       1.52848
   38 Stretch                 22    34                       1.53044
   39 Stretch                 22    35                       1.09166
   40 Stretch                 23    36                       1.38393
   41 Stretch                 23    37                       1.08354
   42 Stretch                 24    38                       1.53091
   43 Stretch                 24    39                       1.52768
   44 Stretch                 24    40                       1.09231
   45 Stretch                 25    36                       1.38459
   46 Stretch                 25    41                       1.08259
   47 Stretch                 26    42                       1.52850
   48 Stretch                 26    43                       1.53259
   49 Stretch                 26    44                       1.09218
   50 Stretch                 27    45                       1.08288
   51 Stretch                 29    46                       1.09172
   52 Stretch                 29    47                       1.09206
   53 Stretch                 29    48                       1.09144
   54 Stretch                 30    49                       1.09156
   55 Stretch                 30    50                       1.09187
   56 Stretch                 30    51                       1.09235
   57 Stretch                 33    52                       1.08986
   58 Stretch                 33    53                       1.09236
   59 Stretch                 33    54                       1.09183
   60 Stretch                 34    55                       1.09171
   61 Stretch                 34    56                       1.09147
   62 Stretch                 34    57                       1.09230
   63 Stretch                 36    58                       1.08298
   64 Stretch                 38    59                       1.09201
   65 Stretch                 38    60                       1.09199
   66 Stretch                 38    61                       1.09190
   67 Stretch                 39    62                       1.08985
   68 Stretch                 39    63                       1.09268
   69 Stretch                 39    64                       1.09224
   70 Stretch                 42    65                       1.08940
   71 Stretch                 42    66                       1.09261
   72 Stretch                 42    67                       1.09269
   73 Stretch                 43    68                       1.09189
   74 Stretch                 43    69                       1.09207
   75 Stretch                 43    70                       1.09260
   76 Stretch                 71    83                       1.44515
   77 Stretch                 71    94                       1.47647
   78 Stretch                 72    73                       1.38789
   79 Stretch                 72    75                       1.38775
   80 Stretch                 72    81                       1.08264
   81 Stretch                 73    76                       1.38597
   82 Stretch                 73    82                       1.08319
   83 Stretch                 74    75                       1.08304
   84 Stretch                 75    78                       1.38667
   85 Stretch                 76    77                       1.39616
   86 Stretch                 76    79                       1.08160
   87 Stretch                 77    78                       1.39394
   88 Stretch                 78    80                       1.07817
   89 Stretch                 83    84                       1.38842
   90 Stretch                 83    85                       1.38888
   91 Stretch                 84    86                       1.38690
   92 Stretch                 84    87                       1.08278
   93 Stretch                 85    88                       1.38870
   94 Stretch                 85    89                       1.08584
   95 Stretch                 86    90                       1.38831
   96 Stretch                 86    91                       1.08230
   97 Stretch                 88    90                       1.38813
   98 Stretch                 88    92                       1.08328
   99 Stretch                 90    93                       1.08262
  100 Stretch                 94    95                       1.09248
  101 Stretch                 94    96                       1.08886
  102 Stretch                 94    97                       1.08426
  103 Bend                     1     3     4               133.28578
  104 Bend                     1     3    71                44.86759
  105 Bend                     1    71     3                69.57924
  106 Bend                     1    71    83               124.58221
  107 Bend                     1    71    94               112.51478
  108 Bend                     1    77    76               115.60801
  109 Bend                     1    77    78               125.87654
  110 Bend                     2     1     3               110.89933
  111 Bend                     2     1    71               116.98394
  112 Bend                     2     1    77               119.08202
  113 Bend                     3     1    71                65.55318
  114 Bend                     3     1    77               110.12295
  115 Bend                     3     4     5               119.92332
  116 Bend                     3     4     6               132.88672
  117 Bend                     3    71    83               118.73996
  118 Bend                     3    71    94               115.19926
  119 Bend                     4     5     7               114.17157
  120 Bend                     4     5     8               121.52362
  121 Bend                     4     6     9               113.52180
  122 Bend                     4     6    10               124.65781
  123 Bend                     5     4     6               106.89630
  124 Bend                     5     7     9               101.60519
  125 Bend                     5     7    11               110.94410
  126 Bend                     5     7    12               110.83094
  127 Bend                     5     8    13               118.89805
  128 Bend                     5     8    14               119.27405
  129 Bend                     6     9     7               102.47800
  130 Bend                     6     9    15               110.01355
  131 Bend                     6     9    16               110.83300
  132 Bend                     6    10    17               118.30557
  133 Bend                     6    10    18               119.66425
  134 Bend                     7     5     8               124.00585
  135 Bend                     7     9    15               112.20901
  136 Bend                     7     9    16               113.02877
  137 Bend                     8    13    19               118.14864
  138 Bend                     8    13    20               121.77004
  139 Bend                     8    14    21               118.16654
  140 Bend                     8    14    22               121.77648
  141 Bend                     9     6    10               121.56680
  142 Bend                     9     7    11               112.70314
  143 Bend                     9     7    12               112.51904
  144 Bend                    10    17    23               118.15484
  145 Bend                    10    17    24               122.03653
  146 Bend                    10    18    25               117.89389
  147 Bend                    10    18    26               121.91996
  148 Bend                    11     7    12               108.17848
  149 Bend                    13     8    14               121.80717
  150 Bend                    13    19    27               120.89910
  151 Bend                    13    19    28               119.54266
  152 Bend                    13    20    29               110.51863
  153 Bend                    13    20    30               111.81214
  154 Bend                    13    20    31               107.68166
  155 Bend                    14    21    27               120.86599
  156 Bend                    14    21    32               119.56375
  157 Bend                    14    22    33               111.80703
  158 Bend                    14    22    34               110.53852
  159 Bend                    14    22    35               107.90494
  160 Bend                    15     9    16               108.20782
  161 Bend                    17    10    18               122.01902
  162 Bend                    17    23    36               120.75090
  163 Bend                    17    23    37               119.57400
  164 Bend                    17    24    38               110.95049
  165 Bend                    17    24    39               111.39753
  166 Bend                    17    24    40               107.89731
  167 Bend                    18    25    36               121.01155
  168 Bend                    18    25    41               119.49946
  169 Bend                    18    26    42               112.65058
  170 Bend                    18    26    43               110.02009
  171 Bend                    18    26    44               107.73952
  172 Bend                    19    13    20               120.07871
  173 Bend                    19    27    21               120.10270
  174 Bend                    19    27    45               119.92480
  175 Bend                    20    29    46               111.25565
  176 Bend                    20    29    47               110.96796
  177 Bend                    20    29    48               110.55026
  178 Bend                    20    30    49               110.61658
  179 Bend                    20    30    50               110.36903
  180 Bend                    20    30    51               111.39711
  181 Bend                    21    14    22               120.05687
  182 Bend                    21    27    45               119.97245
  183 Bend                    22    33    52               110.68368
  184 Bend                    22    33    53               111.48259
  185 Bend                    22    33    54               110.30498
  186 Bend                    22    34    55               111.44367
  187 Bend                    22    34    56               110.67307
  188 Bend                    22    34    57               110.67580
  189 Bend                    23    17    24               119.80538
  190 Bend                    23    36    25               120.15622
  191 Bend                    23    36    58               119.94025
  192 Bend                    24    38    59               111.58323
  193 Bend                    24    38    60               110.84849
  194 Bend                    24    38    61               110.58491
  195 Bend                    24    39    62               110.98169
  196 Bend                    24    39    63               110.44271
  197 Bend                    24    39    64               111.14673
  198 Bend                    25    18    26               120.13599
  199 Bend                    25    36    58               119.90332
  200 Bend                    26    42    65               110.71440
  201 Bend                    26    42    66               111.27352
  202 Bend                    26    42    67               109.79789
  203 Bend                    26    43    68               112.00534
  204 Bend                    26    43    69               110.65033
  205 Bend                    26    43    70               110.23847
  206 Bend                    27    19    28               119.55815
  207 Bend                    27    21    32               119.56735
  208 Bend                    29    20    30               111.24769
  209 Bend                    29    20    31               108.12012
  210 Bend                    30    20    31               107.26941
  211 Bend                    33    22    34               110.99130
  212 Bend                    33    22    35               106.98077
  213 Bend                    34    22    35               108.44662
  214 Bend                    36    23    37               119.67438
  215 Bend                    36    25    41               119.48804
  216 Bend                    38    24    39               111.11191
  217 Bend                    38    24    40               108.08131
  218 Bend                    39    24    40               107.21722
  219 Bend                    42    26    43               110.46229
  220 Bend                    42    26    44               107.33242
  221 Bend                    43    26    44               108.47892
  222 Bend                    46    29    47               107.64493
  223 Bend                    46    29    48               108.37207
  224 Bend                    47    29    48               107.92139
  225 Bend                    49    30    50               108.32758
  226 Bend                    49    30    51               108.29525
  227 Bend                    50    30    51               107.72520
  228 Bend                    52    33    53               108.34954
  229 Bend                    52    33    54               108.16616
  230 Bend                    53    33    54               107.73706
  231 Bend                    55    34    56               108.43478
  232 Bend                    55    34    57               107.54628
  233 Bend                    56    34    57               107.93471
  234 Bend                    59    38    60               107.48704
  235 Bend                    59    38    61               108.40336
  236 Bend                    60    38    61               107.78939
  237 Bend                    62    39    63               108.60090
  238 Bend                    62    39    64               107.82151
  239 Bend                    63    39    64               107.72955
  240 Bend                    65    42    66               108.28142
  241 Bend                    65    42    67               109.54865
  242 Bend                    66    42    67               107.13839
  243 Bend                    68    43    69               108.41670
  244 Bend                    68    43    70               107.42657
  245 Bend                    69    43    70               107.95866
  246 Bend                    71     1    77               120.19857
  247 Bend                    71    83    84               119.77823
  248 Bend                    71    83    85               120.21302
  249 Bend                    71    94    95               110.33167
  250 Bend                    71    94    96               108.50739
  251 Bend                    71    94    97               109.65624
  252 Bend                    72    73    76               120.31240
  253 Bend                    72    73    82               120.06085
  254 Bend                    72    75    74               120.22185
  255 Bend                    72    75    78               120.39996
  256 Bend                    73    72    75               119.35559
  257 Bend                    73    72    81               120.37984
  258 Bend                    73    76    77               120.71222
  259 Bend                    73    76    79               121.20866
  260 Bend                    74    75    78               119.37801
  261 Bend                    75    72    81               120.26307
  262 Bend                    75    78    77               120.64641
  263 Bend                    75    78    80               119.01637
  264 Bend                    76    73    82               119.62458
  265 Bend                    76    77    78               118.50753
  266 Bend                    77    76    79               118.07840
  267 Bend                    77    78    80               120.33705
  268 Bend                    83    71    94               110.77520
  269 Bend                    83    84    86               120.03852
  270 Bend                    83    84    87               119.45897
  271 Bend                    83    85    88               119.90337
  272 Bend                    83    85    89               119.34420
  273 Bend                    84    83    85               119.89875
  274 Bend                    84    86    90               120.19514
  275 Bend                    84    86    91               119.71330
  276 Bend                    85    88    90               120.22862
  277 Bend                    85    88    92               119.65526
  278 Bend                    86    84    87               120.50240
  279 Bend                    86    90    88               119.69896
  280 Bend                    86    90    93               120.04942
  281 Bend                    88    85    89               120.74239
  282 Bend                    88    90    93               120.25039
  283 Bend                    90    86    91               120.09152
  284 Bend                    90    88    92               120.11586
  285 Bend                    95    94    96               109.57795
  286 Bend                    95    94    97               108.32424
  287 Bend                    96    94    97               110.44173
  288 Torsion                  1     3     4     5        -170.78502
  289 Torsion                  1     3     4     6          16.33743
  290 Torsion                  1     3    71    83         119.11543
  291 Torsion                  1     3    71    94        -106.04461
  292 Torsion                  1    71     4     5        -167.72256
  293 Torsion                  1    71     4     6          21.52001
  294 Torsion                  4     3     1    71        -175.24488
  295 Torsion                  1    71    83    84         -74.08784
  296 Torsion                  1    71    83    85         109.72895
  297 Torsion                  1    71    94    95          72.78580
  298 Torsion                  1    71    94    96        -167.15620
  299 Torsion                  1    71    94    97         -46.44857
  300 Torsion                  1    77    76    73        -178.48709
  301 Torsion                  1    77    76    79           1.20872
  302 Torsion                  1    77    78    75         178.36992
  303 Torsion                  1    77    78    80          -1.78165
  304 Torsion                  2     1     3     4         -64.14854
  305 Torsion                  2     1     3    71         111.09634
  306 Torsion                  2     1    71     3        -102.02029
  307 Torsion                  2     1    71    83         146.47853
  308 Torsion                  2     1    71    94           7.70287
  309 Torsion                  2     1    77    76          -2.76989
  310 Torsion                  2     1    77    78         176.18588
  311 Torsion                  3     1    71    83        -111.50118
  312 Torsion                  3     1    71    94         109.72316
  313 Torsion                  3     1    77    76        -132.45095
  314 Torsion                  3     1    77    78          46.50482
  315 Torsion                  3     4     5     7        -177.44667
  316 Torsion                  3     4     5     8           8.59379
  317 Torsion                  3     4     6     9         168.27959
  318 Torsion                  3     4     6    10          -5.99234
  319 Torsion                  3    71     1    77          99.94412
  320 Torsion                  3    71    83    84        -158.04495
  321 Torsion                  3    71    83    85          25.77184
  322 Torsion                  3    71    94    95         149.93722
  323 Torsion                  3    71    94    96         -90.00478
  324 Torsion                  3    71    94    97          30.70285
  325 Torsion                  4     3     1    77          69.80125
  326 Torsion                  4     5     7     9           9.03440
  327 Torsion                  4     5     7    11         129.06669
  328 Torsion                  4     5     7    12        -110.73203
  329 Torsion                  4     5     8    13         -89.87230
  330 Torsion                  4     5     8    14          88.50169
  331 Torsion                  4     6     9     7          10.53425
  332 Torsion                  4     6     9    15        -108.97830
  333 Torsion                  4     6     9    16         131.39084
  334 Torsion                  4     6    10    17        -100.73101
  335 Torsion                  4     6    10    18          80.45883
  336 Torsion                  5     4    71    83         -49.21242
  337 Torsion                  5     4    71    94          86.17003
  338 Torsion                  4     5     3    71        -172.16241
  339 Torsion                  5     4     6     9          -5.27192
  340 Torsion                  5     4     6    10        -179.54386
  341 Torsion                  5     7     9     6         -10.78038
  342 Torsion                  5     7     9    15         107.18635
  343 Torsion                  5     7     9    16        -130.11139
  344 Torsion                  5     8    13    19         177.32822
  345 Torsion                  5     8    13    20          -3.25960
  346 Torsion                  5     8    14    21        -177.93928
  347 Torsion                  5     8    14    22           2.18373
  348 Torsion                  6     4    71    83         140.03015
  349 Torsion                  6     4    71    94         -84.58740
  350 Torsion                  4     6     3    71         173.00721
  351 Torsion                  6     4     5     7          -2.89491
  352 Torsion                  6     4     5     8        -176.85445
  353 Torsion                  6     9     7    11        -129.56287
  354 Torsion                  6     9     7    12         107.78382
  355 Torsion                  6    10    17    23         179.99532
  356 Torsion                  6    10    17    24          -0.66176
  357 Torsion                  6    10    18    25        -179.94493
  358 Torsion                  6    10    18    26           2.62926
  359 Torsion                  7     5     8    13          96.77806
  360 Torsion                  7     5     8    14         -84.84795
  361 Torsion                  7     9     6    10        -174.99508
  362 Torsion                  8     5     7     9        -177.17755
  363 Torsion                  8     5     7    11         -57.14527
  364 Torsion                  8     5     7    12          63.05602
  365 Torsion                  8    13    19    27           0.72407
  366 Torsion                  8    13    19    28        -179.17110
  367 Torsion                  8    13    20    29        -113.94215
  368 Torsion                  8    13    20    30         121.54636
  369 Torsion                  8    13    20    31           3.95278
  370 Torsion                  8    14    21    27           0.52936
  371 Torsion                  8    14    21    32         179.90743
  372 Torsion                  8    14    22    33        -124.01314
  373 Torsion                  8    14    22    34         111.79752
  374 Torsion                  8    14    22    35          -6.63621
  375 Torsion                  9     6    10    17          85.43485
  376 Torsion                  9     6    10    18         -93.37531
  377 Torsion                 10     6     9    15          65.49237
  378 Torsion                 10     6     9    16         -54.13850
  379 Torsion                 10    17    23    36           0.30129
  380 Torsion                 10    17    23    37        -179.38869
  381 Torsion                 10    17    24    38        -115.61531
  382 Torsion                 10    17    24    39         120.03314
  383 Torsion                 10    17    24    40           2.60622
  384 Torsion                 10    18    25    36          -0.44037
  385 Torsion                 10    18    25    41         179.20459
  386 Torsion                 10    18    26    42        -134.29235
  387 Torsion                 10    18    26    43         101.98181
  388 Torsion                 10    18    26    44         -16.10070
  389 Torsion                 11     7     9    15         -11.59614
  390 Torsion                 11     7     9    16         111.10612
  391 Torsion                 12     7     9    15        -134.24944
  392 Torsion                 12     7     9    16         -11.54718
  393 Torsion                 13     8    14    21           0.38562
  394 Torsion                 13     8    14    22        -179.49138
  395 Torsion                 13    19    27    21           0.15830
  396 Torsion                 13    19    27    45        -179.92560
  397 Torsion                 13    20    29    46          55.94421
  398 Torsion                 13    20    29    47         -63.88248
  399 Torsion                 13    20    29    48         176.40868
  400 Torsion                 13    20    30    49         -57.46361
  401 Torsion                 13    20    30    50        -177.33486
  402 Torsion                 13    20    30    51          63.04269
  403 Torsion                 14     8    13    19          -1.00278
  404 Torsion                 14     8    13    20         178.40940
  405 Torsion                 14    21    27    19          -0.80427
  406 Torsion                 14    21    27    45         179.27967
  407 Torsion                 14    22    33    52          56.86912
  408 Torsion                 14    22    33    53         -63.80874
  409 Torsion                 14    22    33    54         176.54081
  410 Torsion                 14    22    34    55         -55.92593
  411 Torsion                 14    22    34    56        -176.67844
  412 Torsion                 14    22    34    57          63.70572
  413 Torsion                 17    10    18    25           1.29060
  414 Torsion                 17    10    18    26        -176.13521
  415 Torsion                 17    23    36    25           0.51418
  416 Torsion                 17    23    36    58        -179.65127
  417 Torsion                 17    24    38    59          56.02857
  418 Torsion                 17    24    38    60         -63.73632
  419 Torsion                 17    24    38    61         176.77493
  420 Torsion                 17    24    39    62         -56.43577
  421 Torsion                 17    24    39    63        -176.93546
  422 Torsion                 17    24    39    64          63.55050
  423 Torsion                 18    10    17    23          -1.22409
  424 Torsion                 18    10    17    24         178.11884
  425 Torsion                 18    25    36    23          -0.44241
  426 Torsion                 18    25    36    58         179.72297
  427 Torsion                 18    26    42    65          51.57552
  428 Torsion                 18    26    42    66         -68.89684
  429 Torsion                 18    26    42    67         172.66219
  430 Torsion                 18    26    43    68         -55.66242
  431 Torsion                 18    26    43    69        -176.75721
  432 Torsion                 18    26    43    70          63.89338
  433 Torsion                 19    13    20    29          65.45890
  434 Torsion                 19    13    20    30         -59.05260
  435 Torsion                 19    13    20    31        -176.64618
  436 Torsion                 19    27    21    32         179.81768
  437 Torsion                 20    13    19    27        -178.69842
  438 Torsion                 20    13    19    28           1.40642
  439 Torsion                 21    14    22    33          56.11215
  440 Torsion                 21    14    22    34         -68.07720
  441 Torsion                 21    14    22    35         173.48907
  442 Torsion                 21    27    19    28        -179.94655
  443 Torsion                 22    14    21    27        -179.59145
  444 Torsion                 22    14    21    32          -0.21338
  445 Torsion                 23    17    24    38          63.71704
  446 Torsion                 23    17    24    39         -60.63450
  447 Torsion                 23    17    24    40        -178.06142
  448 Torsion                 23    36    25    41         179.91259
  449 Torsion                 24    17    23    36        -179.05679
  450 Torsion                 24    17    23    37           1.25323
  451 Torsion                 25    18    26    42          48.33838
  452 Torsion                 25    18    26    43         -75.38747
  453 Torsion                 25    18    26    44         166.53002
  454 Torsion                 25    36    23    37        -179.79615
  455 Torsion                 26    18    25    36         177.03324
  456 Torsion                 26    18    25    41          -3.32181
  457 Torsion                 28    19    27    45          -0.03045
  458 Torsion                 29    20    30    49         178.43254
  459 Torsion                 29    20    30    50          58.56129
  460 Torsion                 29    20    30    51         -61.06116
  461 Torsion                 30    20    29    46        -179.22236
  462 Torsion                 30    20    29    47          60.95095
  463 Torsion                 30    20    29    48         -58.75790
  464 Torsion                 31    20    29    46         -61.68164
  465 Torsion                 31    20    29    47         178.49167
  466 Torsion                 31    20    29    48          58.78282
  467 Torsion                 31    20    30    49          60.37700
  468 Torsion                 31    20    30    50         -59.49425
  469 Torsion                 31    20    30    51        -179.11670
  470 Torsion                 32    21    27    45          -0.09838
  471 Torsion                 33    22    34    55         179.41825
  472 Torsion                 33    22    34    56          58.66574
  473 Torsion                 33    22    34    57         -60.95010
  474 Torsion                 34    22    33    52        -179.19545
  475 Torsion                 34    22    33    53          60.12668
  476 Torsion                 34    22    33    54         -59.52377
  477 Torsion                 35    22    33    52         -61.06198
  478 Torsion                 35    22    33    53         178.26016
  479 Torsion                 35    22    33    54          58.60971
  480 Torsion                 35    22    34    55          62.17707
  481 Torsion                 35    22    34    56         -58.57544
  482 Torsion                 35    22    34    57        -178.19128
  483 Torsion                 37    23    36    58           0.03840
  484 Torsion                 38    24    39    62         179.30365
  485 Torsion                 38    24    39    63          58.80396
  486 Torsion                 38    24    39    64         -60.71008
  487 Torsion                 39    24    38    59        -179.45783
  488 Torsion                 39    24    38    60          60.77728
  489 Torsion                 39    24    38    61         -58.71147
  490 Torsion                 40    24    38    59         -62.08138
  491 Torsion                 40    24    38    60         178.15373
  492 Torsion                 40    24    38    61          58.66498
  493 Torsion                 40    24    39    62          61.40218
  494 Torsion                 40    24    39    63         -59.09750
  495 Torsion                 40    24    39    64        -178.61154
  496 Torsion                 41    25    36    58           0.07798
  497 Torsion                 42    26    43    68         179.34710
  498 Torsion                 42    26    43    69          58.25232
  499 Torsion                 42    26    43    70         -61.09709
  500 Torsion                 43    26    42    65         175.05597
  501 Torsion                 43    26    42    66          54.58361
  502 Torsion                 43    26    42    67         -63.85736
  503 Torsion                 44    26    42    65         -66.85493
  504 Torsion                 44    26    42    66         172.67271
  505 Torsion                 44    26    42    67          54.23173
  506 Torsion                 44    26    43    68          61.96250
  507 Torsion                 44    26    43    69         -59.13229
  508 Torsion                 44    26    43    70        -178.48170
  509 Torsion                 71     1    77    76         154.80993
  510 Torsion                 71     1    77    78         -26.23430
  511 Torsion                 71     3     1    77        -114.95387
  512 Torsion                 71    83    84    86        -177.36605
  513 Torsion                 71    83    84    87           2.51415
  514 Torsion                 71    83    85    88         178.40082
  515 Torsion                 71    83    85    89          -2.74345
  516 Torsion                 72    73    76    77          -0.41198
  517 Torsion                 72    73    76    79         179.90182
  518 Torsion                 72    75    78    77           0.86996
  519 Torsion                 72    75    78    80        -178.98046
  520 Torsion                 73    72    75    74        -178.60757
  521 Torsion                 73    72    75    78           1.23836
  522 Torsion                 73    76    77    78           2.47576
  523 Torsion                 74    75    72    81           0.94809
  524 Torsion                 74    75    78    77        -179.28283
  525 Torsion                 74    75    78    80           0.86676
  526 Torsion                 75    72    73    76          -1.46421
  527 Torsion                 75    72    73    82         179.07307
  528 Torsion                 75    78    77    76          -2.70167
  529 Torsion                 76    73    72    81         178.98067
  530 Torsion                 76    77    78    80         177.14677
  531 Torsion                 77     1    71    83         -11.55706
  532 Torsion                 77     1    71    94        -150.33272
  533 Torsion                 77    76    73    82         179.05308
  534 Torsion                 78    75    72    81        -179.20599
  535 Torsion                 78    77    76    79        -177.82842
  536 Torsion                 79    76    73    82          -0.63312
  537 Torsion                 81    72    73    82          -0.48205
  538 Torsion                  4     3    83    71         179.57801
  539 Torsion                 83    71    94    95         -71.74240
  540 Torsion                 83    71    94    96          48.31560
  541 Torsion                 83    71    94    97         169.02323
  542 Torsion                 83    84    86    90          -0.47990
  543 Torsion                 83    84    86    91         179.44744
  544 Torsion                 83    85    88    90          -1.63254
  545 Torsion                 83    85    88    92         178.55565
  546 Torsion                 84    83    71    94          65.28637
  547 Torsion                 84    83    85    88           2.22223
  548 Torsion                 84    83    85    89        -178.92204
  549 Torsion                 84    86    90    88           1.07176
  550 Torsion                 84    86    90    93        -179.33088
  551 Torsion                 85    83    71    94        -110.89684
  552 Torsion                 85    83    84    86          -1.17073
  553 Torsion                 85    83    84    87         178.70947
  554 Torsion                 85    88    90    86          -0.01428
  555 Torsion                 85    88    90    93        -179.61081
  556 Torsion                 86    90    88    92         179.79667
  557 Torsion                 87    84    86    90         179.64116
  558 Torsion                 87    84    86    91          -0.43150
  559 Torsion                 88    90    86    91        -178.85530
  560 Torsion                 89    85    88    90         179.52800
  561 Torsion                 89    85    88    92          -0.28382
  562 Torsion                 91    86    90    93           0.74206
  563 Torsion                 92    88    90    93           0.20013
  564 Torsion                  4     3    94    71         174.82897


            XYZ format geometry
            -------------------
    97
 geometry
 C                     1.78235625     0.33499094    -1.45079700
 O                     1.55246285     1.18966756    -2.32159776
 Ni                    0.10190835    -0.36723416    -0.69303541
 C                    -1.27120932     0.40384337     0.28882365
 N                    -2.22630383    -0.37571256     0.83776688
 N                    -1.63216799     1.67608083     0.50952296
 C                    -3.27652633     0.36479405     1.53275808
 C                    -2.11802351    -1.79743127     0.83993129
 C                    -2.95038567     1.80981444     1.13460252
 C                    -0.88989856     2.81845239     0.07660483
 H                    -4.26513962     0.04810243     1.19625815
 H                    -3.21603285     0.20402916     2.61346330
 C                    -2.64590949    -2.51745469    -0.23755025
 C                    -1.45859761    -2.43199121     1.89894808
 H                    -3.66743732     2.21171382     0.41352977
 H                    -2.90819572     2.48817611     1.98749042
 C                    -0.08715523     3.48010510     1.01030704
 C                    -1.00260849     3.25628119    -1.24693466
 C                    -2.48186639    -3.89887398    -0.24710840
 C                    -3.39074148    -1.83312638    -1.36627569
 C                    -1.32812777    -3.81606938     1.85609285
 C                    -0.89693335    -1.65236534     3.07141928
 C                     0.63352945     4.59078463     0.58583203
 C                     0.00280762     3.03064702     2.45555289
 C                    -0.26371420     4.36977851    -1.62858759
 C                    -1.93924702     2.58926496    -2.23483867
 C                    -1.82772392    -4.54442838     0.78855834
 H                    -2.86976851    -4.47712099    -1.07703088
 C                    -4.86159831    -2.25578619    -1.37221654
 C                    -2.73363810    -2.09502285    -2.72131230
 H                    -3.34743450    -0.75737789    -1.18772699
 H                    -0.82029501    -4.33044963     2.66335358
 C                     0.59484824    -1.92028804     3.26906674
 C                    -1.68320497    -1.96114926     4.34761111
 H                    -1.00313621    -0.58887873     2.84906460
 C                     0.55076414     5.02969924    -0.72403681
 H                     1.27082661     5.11506983     1.28800100
 C                    -0.55622873     4.10036795     3.39729146
 C                     1.43475223     2.65739463     2.83505387
 H                    -0.60595843     2.13041231     2.56564040
 H                    -0.32139813     4.72324412    -2.65021637
 C                    -1.27936234     2.33050754    -3.58905756
 C                    -3.20628579     3.43374956    -2.40887100
 H                    -2.22377199     1.61943013    -1.82091885
 H                    -1.70782995    -5.62037716     0.76440532
 H                    -5.33465001    -2.05617102    -0.40877356
 H                    -4.96030857    -3.32442114    -1.57436785
 H                    -5.41232708    -1.71564336    -2.14434521
 H                    -1.69331229    -1.76461847    -2.71425218
 H                    -3.26035774    -1.55400383    -3.51001339
 H                    -2.75437322    -3.15715374    -2.97564001
 H                     1.15162282    -1.68537698     2.36208634
 H                     0.78291879    -2.96491588     3.52718509
 H                     0.98683726    -1.30178025     4.07893801
 H                    -2.74881526    -1.76252103     4.21776765
 H                    -1.31852850    -1.35730010     5.18049024
 H                    -1.57532428    -3.01287428     4.62210560
 H                     1.12221326     5.89295706    -1.04195071
 H                    -1.58333744     4.36617487     3.13866105
 H                     0.04140067     5.01292988     3.34725380
 H                    -0.54113175     3.74795501     4.43064863
 H                     1.82628971     1.88705328     2.17094751
 H                     1.47275169     2.28485602     3.86156417
 H                     2.09783091     3.52293245     2.77057239
 H                    -0.33317019     1.80559246    -3.46262178
 H                    -1.08443701     3.26526407    -4.12012112
 H                    -1.94618283     1.73581949    -4.21808483
 H                    -3.70495062     3.62434099    -1.45638750
 H                    -3.91342994     2.93450832    -3.07470203
 H                    -2.95724212     4.40293948    -2.84752575
 N                     1.49362628    -1.07877530    -1.80145992
 C                     4.63923964     1.45839830     1.56477212
 C                     4.31010198     2.30013262     0.51150137
 H                     4.22952972    -0.42588275     2.51003575
 C                     3.99987105     0.23220887     1.68109209
 C                     3.37415188     1.90688657    -0.43204205
 C                     2.75474421     0.65869770    -0.34480956
 C                     3.05975589    -0.16096312     0.74063668
 H                     3.10563905     2.55186609    -1.25772985
 H                     2.56449178    -1.11096138     0.86176901
 H                     5.38218864     1.75761390     2.29319415
 H                     4.79116393     3.26613744     0.41820404
 C                     2.25063989    -2.21338137    -1.32389339
 C                     3.51302387    -2.46784469    -1.84287918
 C                     1.68861262    -3.09290172    -0.40761278
 C                     4.22161582    -3.58573697    -1.42850169
 H                     3.93564044    -1.78859205    -2.57255083
 C                     2.40945144    -4.19948107     0.02175952
 H                     0.69358814    -2.89442879    -0.02084597
 C                     3.67675110    -4.44840246    -0.48705256
 H                     5.20149613    -3.78387975    -1.84317039
 H                     1.97645317    -4.86998519     0.75417510
 H                     4.23646324    -5.31443104    -0.15724356
 C                     1.13937680    -1.24721061    -3.22487508
 H                     2.02567745    -1.13094001    -3.85294718
 H                     0.72331534    -2.24407431    -3.36188501
 H                     0.41627510    -0.49223749    -3.51256748

 ==============================================================================
                                internuclear distances
 ------------------------------------------------------------------------------
       center one      |      center two      | atomic units |  angstroms
 ------------------------------------------------------------------------------
    2 O                |   1 C                |     2.34632  |     1.24162
    3 Ni               |   1 C                |     3.72771  |     1.97262
    4 C                |   3 Ni               |     3.50699  |     1.85582
    5 N                |   4 C                |     2.55026  |     1.34954
    6 N                |   4 C                |     2.53363  |     1.34074
    7 C                |   5 N                |     2.76077  |     1.46093
    8 C                |   5 N                |     2.69444  |     1.42584
    9 C                |   6 N                |     2.76850  |     1.46503
    9 C                |   7 C                |     2.89873  |     1.53394
   10 C                |   6 N                |     2.70131  |     1.42947
   11 H                |   7 C                |     2.06221  |     1.09128
   12 H                |   7 C                |     2.06787  |     1.09427
   13 C                |   8 C                |     2.64431  |     1.39931
   14 C                |   8 C                |     2.64496  |     1.39965
   15 H                |   9 C                |     2.06632  |     1.09345
   16 H                |   9 C                |     2.06090  |     1.09058
   17 C                |  10 C                |     2.64155  |     1.39785
   18 C                |  10 C                |     2.64302  |     1.39863
   19 C                |  13 C                |     2.62891  |     1.39116
   20 C                |  13 C                |     2.86410  |     1.51562
   21 C                |  14 C                |     2.62837  |     1.39087
   22 C                |  14 C                |     2.86465  |     1.51591
   23 C                |  17 C                |     2.62745  |     1.39039
   24 C                |  17 C                |     2.86519  |     1.51619
   25 C                |  18 C                |     2.62631  |     1.38978
   26 C                |  18 C                |     2.86476  |     1.51597
   27 C                |  19 C                |     2.61660  |     1.38465
   27 C                |  21 C                |     2.61830  |     1.38554
   28 H                |  19 C                |     2.04720  |     1.08333
   29 C                |  20 C                |     2.89202  |     1.53039
   30 C                |  20 C                |     2.88856  |     1.52856
   31 H                |  20 C                |     2.06230  |     1.09132
   32 H                |  21 C                |     2.04767  |     1.08358
   33 C                |  22 C                |     2.88841  |     1.52848
   34 C                |  22 C                |     2.89211  |     1.53044
   35 H                |  22 C                |     2.06294  |     1.09166
   36 C                |  23 C                |     2.61524  |     1.38393
   36 C                |  25 C                |     2.61649  |     1.38459
   37 H                |  23 C                |     2.04760  |     1.08354
   38 C                |  24 C                |     2.89301  |     1.53091
   39 C                |  24 C                |     2.88690  |     1.52768
   40 H                |  24 C                |     2.06416  |     1.09231
   41 H                |  25 C                |     2.04579  |     1.08259
   42 C                |  26 C                |     2.88845  |     1.52850
   43 C                |  26 C                |     2.89617  |     1.53259
   44 H                |  26 C                |     2.06393  |     1.09218
   45 H                |  27 C                |     2.04634  |     1.08288
   46 H                |  29 C                |     2.06305  |     1.09172
   47 H                |  29 C                |     2.06369  |     1.09206
   48 H                |  29 C                |     2.06252  |     1.09144
   49 H                |  30 C                |     2.06274  |     1.09156
   50 H                |  30 C                |     2.06334  |     1.09187
   51 H                |  30 C                |     2.06425  |     1.09235
   52 H                |  33 C                |     2.05954  |     1.08986
   53 H                |  33 C                |     2.06425  |     1.09236
   54 H                |  33 C                |     2.06326  |     1.09183
   55 H                |  34 C                |     2.06304  |     1.09171
   56 H                |  34 C                |     2.06258  |     1.09147
   57 H                |  34 C                |     2.06414  |     1.09230
   58 H                |  36 C                |     2.04653  |     1.08298
   59 H                |  38 C                |     2.06361  |     1.09201
   60 H                |  38 C                |     2.06355  |     1.09199
   61 H                |  38 C                |     2.06340  |     1.09190
   62 H                |  39 C                |     2.05951  |     1.08985
   63 H                |  39 C                |     2.06487  |     1.09268
   64 H                |  39 C                |     2.06403  |     1.09224
   65 H                |  42 C                |     2.05868  |     1.08940
   66 H                |  42 C                |     2.06473  |     1.09261
   67 H                |  42 C                |     2.06489  |     1.09269
   68 H                |  43 C                |     2.06337  |     1.09189
   69 H                |  43 C                |     2.06372  |     1.09207
   70 H                |  43 C                |     2.06471  |     1.09260
   71 N                |   1 C                |     2.80614  |     1.48495
   71 N                |   3 Ni               |     3.62107  |     1.91619
   73 C                |  72 C                |     2.62272  |     1.38789
   75 C                |  72 C                |     2.62248  |     1.38775
   75 C                |  74 H                |     2.04665  |     1.08304
   76 C                |  73 C                |     2.61911  |     1.38597
   77 C                |   1 C                |     2.84937  |     1.50782
   77 C                |  76 C                |     2.63835  |     1.39616
   78 C                |  75 C                |     2.62043  |     1.38667
   78 C                |  77 C                |     2.63417  |     1.39394
   79 H                |  76 C                |     2.04393  |     1.08160
   80 H                |  78 C                |     2.03745  |     1.07817
   81 H                |  72 C                |     2.04589  |     1.08264
   82 H                |  73 C                |     2.04692  |     1.08319
   83 C                |  71 N                |     2.73095  |     1.44515
   84 C                |  83 C                |     2.62373  |     1.38842
   85 C                |  83 C                |     2.62461  |     1.38888
   86 C                |  84 C                |     2.62086  |     1.38690
   87 H                |  84 C                |     2.04615  |     1.08278
   88 C                |  85 C                |     2.62426  |     1.38870
   89 H                |  85 C                |     2.05194  |     1.08584
   90 C                |  86 C                |     2.62352  |     1.38831
   90 C                |  88 C                |     2.62318  |     1.38813
   91 H                |  86 C                |     2.04525  |     1.08230
   92 H                |  88 C                |     2.04710  |     1.08328
   93 H                |  90 C                |     2.04585  |     1.08262
   94 C                |  71 N                |     2.79013  |     1.47647
   95 H                |  94 C                |     2.06450  |     1.09248
   96 H                |  94 C                |     2.05765  |     1.08886
   97 H                |  94 C                |     2.04896  |     1.08426
 ------------------------------------------------------------------------------
                         number of included internuclear distances:        102
 ==============================================================================



 ==============================================================================
                                 internuclear angles
 ------------------------------------------------------------------------------
        center 1       |       center 2       |       center 3       |  degrees
 ------------------------------------------------------------------------------
    2 O                |   1 C                |   3 Ni               |   110.90
    2 O                |   1 C                |  71 N                |   116.98
    2 O                |   1 C                |  77 C                |   119.08
    1 C                |  71 N                |   3 Ni               |    69.58
    3 Ni               |   1 C                |  77 C                |   110.12
   71 N                |   1 C                |  77 C                |   120.20
    1 C                |   3 Ni               |   4 C                |   133.29
    3 Ni               |  71 N                |   1 C                |    69.58
    4 C                |   3 Ni               |  71 N                |   176.12
    3 Ni               |   4 C                |   5 N                |   119.92
    3 Ni               |   4 C                |   6 N                |   132.89
    5 N                |   4 C                |   6 N                |   106.90
    4 C                |   5 N                |   7 C                |   114.17
    4 C                |   5 N                |   8 C                |   121.52
    7 C                |   5 N                |   8 C                |   124.01
    4 C                |   6 N                |   9 C                |   113.52
    4 C                |   6 N                |  10 C                |   124.66
    9 C                |   6 N                |  10 C                |   121.57
    5 N                |   7 C                |   9 C                |   101.61
    5 N                |   7 C                |  11 H                |   110.94
    5 N                |   7 C                |  12 H                |   110.83
    9 C                |   7 C                |  11 H                |   112.70
    9 C                |   7 C                |  12 H                |   112.52
   11 H                |   7 C                |  12 H                |   108.18
    5 N                |   8 C                |  13 C                |   118.90
    5 N                |   8 C                |  14 C                |   119.27
   13 C                |   8 C                |  14 C                |   121.81
    6 N                |   9 C                |   7 C                |   102.48
    6 N                |   9 C                |  15 H                |   110.01
    6 N                |   9 C                |  16 H                |   110.83
    7 C                |   9 C                |  15 H                |   112.21
    7 C                |   9 C                |  16 H                |   113.03
   15 H                |   9 C                |  16 H                |   108.21
    6 N                |  10 C                |  17 C                |   118.31
    6 N                |  10 C                |  18 C                |   119.66
   17 C                |  10 C                |  18 C                |   122.02
    8 C                |  13 C                |  19 C                |   118.15
    8 C                |  13 C                |  20 C                |   121.77
   19 C                |  13 C                |  20 C                |   120.08
    8 C                |  14 C                |  21 C                |   118.17
    8 C                |  14 C                |  22 C                |   121.78
   21 C                |  14 C                |  22 C                |   120.06
   10 C                |  17 C                |  23 C                |   118.15
   10 C                |  17 C                |  24 C                |   122.04
   23 C                |  17 C                |  24 C                |   119.81
   10 C                |  18 C                |  25 C                |   117.89
   10 C                |  18 C                |  26 C                |   121.92
   25 C                |  18 C                |  26 C                |   120.14
   13 C                |  19 C                |  27 C                |   120.90
   13 C                |  19 C                |  28 H                |   119.54
   27 C                |  19 C                |  28 H                |   119.56
   13 C                |  20 C                |  29 C                |   110.52
   13 C                |  20 C                |  30 C                |   111.81
   13 C                |  20 C                |  31 H                |   107.68
   29 C                |  20 C                |  30 C                |   111.25
   29 C                |  20 C                |  31 H                |   108.12
   30 C                |  20 C                |  31 H                |   107.27
   14 C                |  21 C                |  27 C                |   120.87
   14 C                |  21 C                |  32 H                |   119.56
   27 C                |  21 C                |  32 H                |   119.57
   14 C                |  22 C                |  33 C                |   111.81
   14 C                |  22 C                |  34 C                |   110.54
   14 C                |  22 C                |  35 H                |   107.90
   33 C                |  22 C                |  34 C                |   110.99
   33 C                |  22 C                |  35 H                |   106.98
   34 C                |  22 C                |  35 H                |   108.45
   17 C                |  23 C                |  36 C                |   120.75
   17 C                |  23 C                |  37 H                |   119.57
   36 C                |  23 C                |  37 H                |   119.67
   17 C                |  24 C                |  38 C                |   110.95
   17 C                |  24 C                |  39 C                |   111.40
   17 C                |  24 C                |  40 H                |   107.90
   38 C                |  24 C                |  39 C                |   111.11
   38 C                |  24 C                |  40 H                |   108.08
   39 C                |  24 C                |  40 H                |   107.22
   18 C                |  25 C                |  36 C                |   121.01
   18 C                |  25 C                |  41 H                |   119.50
   36 C                |  25 C                |  41 H                |   119.49
   18 C                |  26 C                |  42 C                |   112.65
   18 C                |  26 C                |  43 C                |   110.02
   18 C                |  26 C                |  44 H                |   107.74
   42 C                |  26 C                |  43 C                |   110.46
   42 C                |  26 C                |  44 H                |   107.33
   43 C                |  26 C                |  44 H                |   108.48
   19 C                |  27 C                |  21 C                |   120.10
   19 C                |  27 C                |  45 H                |   119.92
   21 C                |  27 C                |  45 H                |   119.97
   20 C                |  29 C                |  46 H                |   111.26
   20 C                |  29 C                |  47 H                |   110.97
   20 C                |  29 C                |  48 H                |   110.55
   46 H                |  29 C                |  47 H                |   107.64
   46 H                |  29 C                |  48 H                |   108.37
   47 H                |  29 C                |  48 H                |   107.92
   20 C                |  30 C                |  49 H                |   110.62
   20 C                |  30 C                |  50 H                |   110.37
   20 C                |  30 C                |  51 H                |   111.40
   49 H                |  30 C                |  50 H                |   108.33
   49 H                |  30 C                |  51 H                |   108.30
   50 H                |  30 C                |  51 H                |   107.73
   22 C                |  33 C                |  52 H                |   110.68
   22 C                |  33 C                |  53 H                |   111.48
   22 C                |  33 C                |  54 H                |   110.30
   52 H                |  33 C                |  53 H                |   108.35
   52 H                |  33 C                |  54 H                |   108.17
   53 H                |  33 C                |  54 H                |   107.74
   22 C                |  34 C                |  55 H                |   111.44
   22 C                |  34 C                |  56 H                |   110.67
   22 C                |  34 C                |  57 H                |   110.68
   55 H                |  34 C                |  56 H                |   108.43
   55 H                |  34 C                |  57 H                |   107.55
   56 H                |  34 C                |  57 H                |   107.93
   23 C                |  36 C                |  25 C                |   120.16
   23 C                |  36 C                |  58 H                |   119.94
   25 C                |  36 C                |  58 H                |   119.90
   24 C                |  38 C                |  59 H                |   111.58
   24 C                |  38 C                |  60 H                |   110.85
   24 C                |  38 C                |  61 H                |   110.58
   59 H                |  38 C                |  60 H                |   107.49
   59 H                |  38 C                |  61 H                |   108.40
   60 H                |  38 C                |  61 H                |   107.79
   24 C                |  39 C                |  62 H                |   110.98
   24 C                |  39 C                |  63 H                |   110.44
   24 C                |  39 C                |  64 H                |   111.15
   62 H                |  39 C                |  63 H                |   108.60
   62 H                |  39 C                |  64 H                |   107.82
   63 H                |  39 C                |  64 H                |   107.73
   26 C                |  42 C                |  65 H                |   110.71
   26 C                |  42 C                |  66 H                |   111.27
   26 C                |  42 C                |  67 H                |   109.80
   65 H                |  42 C                |  66 H                |   108.28
   65 H                |  42 C                |  67 H                |   109.55
   66 H                |  42 C                |  67 H                |   107.14
   26 C                |  43 C                |  68 H                |   112.01
   26 C                |  43 C                |  69 H                |   110.65
   26 C                |  43 C                |  70 H                |   110.24
   68 H                |  43 C                |  69 H                |   108.42
   68 H                |  43 C                |  70 H                |   107.43
   69 H                |  43 C                |  70 H                |   107.96
    1 C                |  71 N                |   3 Ni               |    69.58
    1 C                |  71 N                |  83 C                |   124.58
    1 C                |  71 N                |  94 C                |   112.51
    3 Ni               |  71 N                |  83 C                |   118.74
    3 Ni               |  71 N                |  94 C                |   115.20
   83 C                |  71 N                |  94 C                |   110.78
   73 C                |  72 C                |  75 C                |   119.36
   73 C                |  72 C                |  81 H                |   120.38
   75 C                |  72 C                |  81 H                |   120.26
   72 C                |  73 C                |  76 C                |   120.31
   72 C                |  73 C                |  82 H                |   120.06
   76 C                |  73 C                |  82 H                |   119.62
   72 C                |  75 C                |  74 H                |   120.22
   72 C                |  75 C                |  78 C                |   120.40
   74 H                |  75 C                |  78 C                |   119.38
   73 C                |  76 C                |  77 C                |   120.71
   73 C                |  76 C                |  79 H                |   121.21
   77 C                |  76 C                |  79 H                |   118.08
    1 C                |  77 C                |  76 C                |   115.61
    1 C                |  77 C                |  78 C                |   125.88
   76 C                |  77 C                |  78 C                |   118.51
   75 C                |  78 C                |  77 C                |   120.65
   75 C                |  78 C                |  80 H                |   119.02
   77 C                |  78 C                |  80 H                |   120.34
   71 N                |  83 C                |  84 C                |   119.78
   71 N                |  83 C                |  85 C                |   120.21
   84 C                |  83 C                |  85 C                |   119.90
   83 C                |  84 C                |  86 C                |   120.04
   83 C                |  84 C                |  87 H                |   119.46
   86 C                |  84 C                |  87 H                |   120.50
   83 C                |  85 C                |  88 C                |   119.90
   83 C                |  85 C                |  89 H                |   119.34
   88 C                |  85 C                |  89 H                |   120.74
   84 C                |  86 C                |  90 C                |   120.20
   84 C                |  86 C                |  91 H                |   119.71
   90 C                |  86 C                |  91 H                |   120.09
   85 C                |  88 C                |  90 C                |   120.23
   85 C                |  88 C                |  92 H                |   119.66
   90 C                |  88 C                |  92 H                |   120.12
   86 C                |  90 C                |  88 C                |   119.70
[...]
  ----- ------------  ---------------      ----- ------------  ---------------
   414    -12.935350  73 C  s               434     12.994501  76 C  s         
   452     12.944534  78 C  s               425    -12.468350  75 C  s         
   405     12.016623  72 C  s               443    -11.513453  77 C  s         
   478     -8.589242  84 C  s               487     -8.632075  85 C  s         
   469      8.049699  83 C  s               496      7.607449  86 C  s         

 Vector  526  Occ=0.000000D+00  E= 1.777020D+00
              MO Center= -3.8D-01,  7.3D-01,  2.4D-01, r^2= 1.6D+01
   Bfn.  Coefficient  Atom+Function         Bfn.  Coefficient  Atom+Function  
  ----- ------------  ---------------      ----- ------------  ---------------
   202     10.885385  23 C  s               100     10.756899   8 C  py        
   220     10.661696  25 C  s               157    -10.269113  18 C  s         
   118      9.781830  10 C  py              148     -9.285230  17 C  s         
   184     -9.299564  21 C  s               166     -9.217604  19 C  s         
   291     -9.211993  36 C  s               113      9.109728  10 C  s         

 Vector  527  Occ=0.000000D+00  E= 1.800508D+00
              MO Center=  4.5D-01,  2.5D-01, -6.8D-01, r^2= 1.1D+01
   Bfn.  Coefficient  Atom+Function         Bfn.  Coefficient  Atom+Function  
  ----- ------------  ---------------      ----- ------------  ---------------
   220      7.871747  25 C  s               202      7.040137  23 C  s         
   148     -6.477016  17 C  s               291     -6.463474  36 C  s         
   157     -6.316797  18 C  s               396      6.252212  71 N  s         
   113      6.203443  10 C  s               434     -5.791219  76 C  s         
   118      5.384937  10 C  py              425      5.291681  75 C  s         

 Vector  528  Occ=0.000000D+00  E= 1.879306D+00
              MO Center=  1.9D-01, -4.8D-01, -8.2D-01, r^2= 9.3D+00
   Bfn.  Coefficient  Atom+Function         Bfn.  Coefficient  Atom+Function  
  ----- ------------  ---------------      ----- ------------  ---------------
    22     24.995564   3 Ni s                23    -10.191453   3 Ni s         
   166      6.711122  19 C  s                56     -6.126350   3 Ni dzz       
    54     -5.866209   3 Ni dyy              51     -5.452569   3 Ni dxx       
   184      5.259979  21 C  s               238     -5.220821  27 C  s         
   135     -4.771977  14 C  s                95      4.440016   8 C  s         

 Vector  529  Occ=0.000000D+00  E= 1.897136D+00
              MO Center= -1.6D+00,  5.4D-01,  4.4D-01, r^2= 5.6D+00
   Bfn.  Coefficient  Atom+Function         Bfn.  Coefficient  Atom+Function  
  ----- ------------  ---------------      ----- ------------  ---------------
    22      4.910271   3 Ni s                73     -4.364886   5 N  py        
   100     -4.162457   8 C  py               86      4.109261   7 C  s         
   104     -4.057656   9 C  s                81     -3.363046   6 N  px        
    64      2.938155   4 C  py               77     -2.900553   6 N  s         
   118     -2.802468  10 C  py               68      2.763486   5 N  s         

 Vector  530  Occ=0.000000D+00  E= 1.975634D+00
              MO Center=  1.4D+00,  5.5D-01, -1.7D+00, r^2= 5.0D+00
   Bfn.  Coefficient  Atom+Function         Bfn.  Coefficient  Atom+Function  
  ----- ------------  ---------------      ----- ------------  ---------------
    12      7.636492   2 O  s                 9      5.115188   1 C  pz        
    22     -4.635638   3 Ni s                 8     -4.111720   1 C  py        
    23      3.743331   3 Ni s               448      3.685853  77 C  py        
   113      3.431688  10 C  s               157     -3.390839  18 C  s         
   148     -3.262942  17 C  s               434     -3.130298  76 C  s         

 Vector  531  Occ=0.000000D+00  E= 2.872393D+00
              MO Center=  7.5D-02, -3.7D-01, -8.1D-01, r^2= 2.4D+00
   Bfn.  Coefficient  Atom+Function         Bfn.  Coefficient  Atom+Function  
  ----- ------------  ---------------      ----- ------------  ---------------
    22      8.984040   3 Ni s                21      5.866159   3 Ni s         
    23     -5.447552   3 Ni s                20     -3.075228   3 Ni s         
    45     -2.748223   3 Ni dxx              48     -2.739358   3 Ni dyy       
    50     -2.744146   3 Ni dzz             166      1.600646  19 C  s         
   229     -1.464955  26 C  s               396     -1.396325  71 N  s         

 Vector  532  Occ=0.000000D+00  E= 3.103869D+00
              MO Center=  2.3D-01, -3.9D-01, -5.8D-01, r^2= 1.2D+00
   Bfn.  Coefficient  Atom+Function         Bfn.  Coefficient  Atom+Function  
  ----- ------------  ---------------      ----- ------------  ---------------
    22      3.475616   3 Ni s                23     -1.310178   3 Ni s         
    21      1.173233   3 Ni s               396     -1.173786  71 N  s         
    12      1.166045   2 O  s                32     -1.153807   3 Ni pz        
     9      1.142390   1 C  pz               29      1.029656   3 Ni pz        
   443     -1.017887  77 C  s               425     -0.932365  75 C  s         

 Vector  533  Occ=0.000000D+00  E= 3.292009D+00
              MO Center=  1.7D-01, -3.1D-01, -7.1D-01, r^2= 1.2D+00
   Bfn.  Coefficient  Atom+Function         Bfn.  Coefficient  Atom+Function  
  ----- ------------  ---------------      ----- ------------  ---------------
     3      3.336064   1 C  s               396     -2.489159  71 N  s         
     8     -1.969133   1 C  py              448      1.675385  77 C  py        
    31     -1.447800   3 Ni py              452      1.418229  78 C  s         
   434     -1.371899  76 C  s                28      1.228448   3 Ni py        
    77      1.130302   6 N  s                23     -1.109741   3 Ni s         

 Vector  534  Occ=0.000000D+00  E= 3.489249D+00
              MO Center=  1.6D-01, -3.5D-01, -7.0D-01, r^2= 1.4D+00
   Bfn.  Coefficient  Atom+Function         Bfn.  Coefficient  Atom+Function  
  ----- ------------  ---------------      ----- ------------  ---------------
     3      3.388813   1 C  s               434     -1.890727  76 C  s         
   448      1.876305  77 C  py                8     -1.523422   1 C  py        
    33     -1.398785   3 Ni px               30     -1.391442   3 Ni px        
   473      1.281907  83 C  px              478     -1.249667  84 C  s         
    64      1.238102   4 C  py              447      1.151989  77 C  px        

 Vector  535  Occ=0.000000D+00  E= 4.768920D+00
              MO Center=  1.1D-01, -3.6D-01, -6.8D-01, r^2= 5.9D-01
   Bfn.  Coefficient  Atom+Function         Bfn.  Coefficient  Atom+Function  
  ----- ------------  ---------------      ----- ------------  ---------------
    49      1.624213   3 Ni dyz              43     -1.329584   3 Ni dyz       
    46      1.166050   3 Ni dxy              40     -0.955037   3 Ni dxy       
    22     -0.825014   3 Ni s                55     -0.771547   3 Ni dyz       
    52     -0.513036   3 Ni dxy             452     -0.482802  78 C  s         
   396      0.463873  71 N  s               449      0.456846  77 C  pz        

 Vector  536  Occ=0.000000D+00  E= 4.802317D+00
              MO Center=  1.0D-01, -3.7D-01, -6.9D-01, r^2= 6.2D-01
   Bfn.  Coefficient  Atom+Function         Bfn.  Coefficient  Atom+Function  
  ----- ------------  ---------------      ----- ------------  ---------------
    95     -1.080944   8 C  s                48     -1.062399   3 Ni dyy       
    47      1.030502   3 Ni dxz              41     -0.835021   3 Ni dxz       
    42      0.789144   3 Ni dyy               3     -0.692348   1 C  s         
   135      0.673766  14 C  s                12      0.670242   2 O  s         
     8     -0.611579   1 C  py               64     -0.581945   4 C  py        

 Vector  537  Occ=0.000000D+00  E= 4.841412D+00
              MO Center=  9.9D-02, -3.7D-01, -6.9D-01, r^2= 6.4D-01
   Bfn.  Coefficient  Atom+Function         Bfn.  Coefficient  Atom+Function  
  ----- ------------  ---------------      ----- ------------  ---------------
    22      1.396816   3 Ni s                56     -0.990679   3 Ni dzz       
    45     -0.976066   3 Ni dxx              50      0.964663   3 Ni dzz       
    44     -0.898802   3 Ni dzz               3     -0.726336   1 C  s         
    39      0.649796   3 Ni dxx              77      0.581514   6 N  s         
   478     -0.548956  84 C  s               487      0.550379  85 C  s         

 Vector  538  Occ=0.000000D+00  E= 4.984075D+00
              MO Center=  8.5D-02, -3.7D-01, -6.8D-01, r^2= 6.9D-01
   Bfn.  Coefficient  Atom+Function         Bfn.  Coefficient  Atom+Function  
  ----- ------------  ---------------      ----- ------------  ---------------
    22      1.611449   3 Ni s                 3     -1.354428   1 C  s         
    46     -1.286395   3 Ni dxy              64      1.064834   4 C  py        
    47      1.045045   3 Ni dxz              52      1.049359   3 Ni dxy       
    40      0.977365   3 Ni dxy              68      0.903379   5 N  s         
   396      0.865895  71 N  s                49      0.850365   3 Ni dyz       

 Vector  539  Occ=0.000000D+00  E= 5.116120D+00
              MO Center=  1.1D-01, -3.8D-01, -7.1D-01, r^2= 7.0D-01
   Bfn.  Coefficient  Atom+Function         Bfn.  Coefficient  Atom+Function  
  ----- ------------  ---------------      ----- ------------  ---------------
    22      3.286685   3 Ni s                53     -1.595698   3 Ni dxz       
    47      1.569728   3 Ni dxz              59     -1.357339   4 C  s         
   396     -1.322423  71 N  s                52     -1.267126   3 Ni dxy       
    33     -1.204066   3 Ni px               46      1.190589   3 Ni dxy       
    41     -1.141704   3 Ni dxz              63     -1.101273   4 C  px        

 Vector  540  Occ=0.000000D+00  E= 1.025211D+01
              MO Center=  1.1D-01, -3.7D-01, -7.0D-01, r^2= 6.1D-01
   Bfn.  Coefficient  Atom+Function         Bfn.  Coefficient  Atom+Function  
  ----- ------------  ---------------      ----- ------------  ---------------
    21     27.633234   3 Ni s                20    -17.423010   3 Ni s         
    45     -7.532776   3 Ni dxx              48     -7.476282   3 Ni dyy       
    50     -7.469083   3 Ni dzz              22      4.016537   3 Ni s         
    23     -2.247539   3 Ni s                19      1.507147   3 Ni s         
    54     -0.635492   3 Ni dyy              56     -0.636256   3 Ni dzz       

 Vector  541  Occ=0.000000D+00  E= 4.995914D+01
              MO Center=  1.0D-01, -3.7D-01, -6.9D-01, r^2= 1.1D-01
   Bfn.  Coefficient  Atom+Function         Bfn.  Coefficient  Atom+Function  
  ----- ------------  ---------------      ----- ------------  ---------------
    20     21.387738   3 Ni s                21    -20.662343   3 Ni s         
    45      5.145083   3 Ni dxx              48      5.134608   3 Ni dyy       
    50      5.131455   3 Ni dzz              19     -4.349891   3 Ni s         
    39     -2.735012   3 Ni dxx              42     -2.731731   3 Ni dyy       
    44     -2.730631   3 Ni dzz              22     -1.871832   3 Ni s         

 Vector  542  Occ=0.000000D+00  E= 1.174633D+02
              MO Center=  1.0D-01, -3.7D-01, -6.9D-01, r^2= 2.9D-02
   Bfn.  Coefficient  Atom+Function         Bfn.  Coefficient  Atom+Function  
  ----- ------------  ---------------      ----- ------------  ---------------
    26      0.897146   3 Ni pz               24      0.481096   3 Ni px        
    29     -0.338886   3 Ni pz               25     -0.312192   3 Ni py        
    27     -0.181567   3 Ni px               32      0.174630   3 Ni pz        
    28      0.118096   3 Ni py               22     -0.102084   3 Ni s         
    30      0.093515   3 Ni px               33     -0.073065   3 Ni px        

 Vector  543  Occ=0.000000D+00  E= 1.175689D+02
              MO Center=  1.0D-01, -3.7D-01, -6.9D-01, r^2= 3.0D-02
   Bfn.  Coefficient  Atom+Function         Bfn.  Coefficient  Atom+Function  
  ----- ------------  ---------------      ----- ------------  ---------------
    25      1.017454   3 Ni py               28     -0.390380   3 Ni py        
     3     -0.282237   1 C  s                26      0.250793   3 Ni pz        
    31      0.211143   3 Ni py               24      0.192476   3 Ni px        
   396      0.184573  71 N  s                 8      0.172694   1 C  py        
   448     -0.149976  77 C  py              434      0.125048  76 C  s         

 Vector  544  Occ=0.000000D+00  E= 1.176843D+02
              MO Center=  1.0D-01, -3.7D-01, -6.9D-01, r^2= 3.1D-02
   Bfn.  Coefficient  Atom+Function         Bfn.  Coefficient  Atom+Function  
  ----- ------------  ---------------      ----- ------------  ---------------
    24      0.931419   3 Ni px               26     -0.516497   3 Ni pz        
    27     -0.363583   3 Ni px                3     -0.261977   1 C  s         
    30      0.207249   3 Ni px               29      0.201651   3 Ni pz        
   448     -0.166671  77 C  py              434      0.163108  76 C  s         
     8      0.140038   1 C  py               32     -0.114884   3 Ni pz        

 Vector  545  Occ=0.000000D+00  E= 6.767198D+02
              MO Center=  1.0D-01, -3.7D-01, -6.9D-01, r^2= 2.3D-02
   Bfn.  Coefficient  Atom+Function         Bfn.  Coefficient  Atom+Function  
  ----- ------------  ---------------      ----- ------------  ---------------
    20     28.889383   3 Ni s                21    -15.363281   3 Ni s         
    39     -7.285379   3 Ni dxx              42     -7.286856   3 Ni dyy       
    44     -7.286734   3 Ni dzz              19     -4.277132   3 Ni s         
    45      3.413715   3 Ni dxx              48      3.418836   3 Ni dyy       
    50      3.418361   3 Ni dzz              51      0.137266   3 Ni dxx       


 center of mass
 --------------
 x =   0.06320663 y =  -0.01659124 z =  -0.03231682

 moments of inertia (a.u.)
 ------------------
       24346.489001525821           0.000000000005          -0.000000000001
           0.000000000005       21415.063548260143          -0.000000000000
          -0.000000000001          -0.000000000000       29395.863891566678

     Multipole analysis of the density
     ---------------------------------

     L   x y z        total         alpha         beta         nuclear
     -   - - -        -----         -----         ----         -------
     0   0 0 0     -0.000000   -172.000000   -172.000000    344.000000

     1   1 0 0     -1.224716      0.350536      0.350536     -1.925789
     1   0 1 0     -0.944885     -3.942302     -3.942302      6.939719
     1   0 0 1      1.178397     -5.959037     -5.959037     13.096470

     2   2 0 0   -202.410756  -3774.800034  -3774.800034   7347.189313
     2   1 1 0     -3.672956     -4.504709     -4.504709      5.336461
     2   1 0 1      1.298778    -48.177052    -48.177052     97.652882
     2   0 2 0   -203.029281  -4562.752422  -4562.752422   8922.475563
     2   0 1 1      3.542880      2.383178      2.383178     -1.223477
     2   0 0 2   -207.423032  -2480.722457  -2480.722457   4754.021883


 Task  times  cpu:     3620.3s     wall:     3620.3s


                                NWChem Input Module
                                -------------------


 Summary of allocated global arrays
-----------------------------------
  No active global arrays


MA_summarize_allocated_blocks: starting scan ...
heap block 'gridpts', handle 112, address 0x5736b52351a0:
	type of elements:		double precision
	number of elements:		203683869
	address of client space:	0x5736b5235200
	index for client space:		93507867
	total number of bytes:		1629471056
MA_summarize_allocated_blocks: scan completed: 1 heap block, 0 stack blocks
MA usage statistics:

	allocation statistics:
					      heap	     stack
					      ----	     -----
	current number of blocks	         1	         0
	maximum number of blocks	        34	        58
	current total bytes		1629471056	         0
	maximum total bytes		1648841992	  43550152
	maximum total K-bytes		   1648842	     43551
	maximum total M-bytes		      1649	        44


                                     CITATION
                                     --------
                Please cite the following reference when publishing
                           results obtained with NWChem:

          E. Apra, E. J. Bylaska, W. A. de Jong, N. Govind, K. Kowalski,
       T. P. Straatsma, M. Valiev, H. J. J. van Dam, Y. Alexeev, J. Anchell,
       V. Anisimov, F. W. Aquino, R. Atta-Fynn, J. Autschbach, N. P. Bauman,
     J. C. Becca, D. E. Bernholdt, K. Bhaskaran-Nair, S. Bogatko, P. Borowski,
         J. Boschen, J. Brabec, A. Bruner, E. Cauet, Y. Chen, G. N. Chuev,
      C. J. Cramer, J. Daily, M. J. O. Deegan, T. H. Dunning Jr., M. Dupuis,
   K. G. Dyall, G. I. Fann, S. A. Fischer, A. Fonari, H. Fruchtl, L. Gagliardi,
      J. Garza, N. Gawande, S. Ghosh, K. Glaesemann, A. W. Gotz, J. Hammond,
       V. Helms, E. D. Hermes, K. Hirao, S. Hirata, M. Jacquelin, L. Jensen,
   B. G. Johnson, H. Jonsson, R. A. Kendall, M. Klemm, R. Kobayashi, V. Konkov,
      S. Krishnamoorthy, M. Krishnan, Z. Lin, R. D. Lins, R. J. Littlefield,
      A. J. Logsdail, K. Lopata, W. Ma, A. V. Marenich, J. Martin del Campo,
   D. Mejia-Rodriguez, J. E. Moore, J. M. Mullin, T. Nakajima, D. R. Nascimento,
    J. A. Nichols, P. J. Nichols, J. Nieplocha, A. Otero-de-la-Roza, B. Palmer,
    A. Panyala, T. Pirojsirikul, B. Peng, R. Peverati, J. Pittner, L. Pollack,
   R. M. Richard, P. Sadayappan, G. C. Schatz, W. A. Shelton, D. W. Silverstein,
   D. M. A. Smith, T. A. Soares, D. Song, M. Swart, H. L. Taylor, G. S. Thomas,
            V. Tipparaju, D. G. Truhlar, K. Tsemekhman, T. Van Voorhis,
      A. Vazquez-Mayagoitia, P. Verma, O. Villa, A. Vishnu, K. D. Vogiatzis,
        D. Wang, J. H. Weare, M. J. Williamson, T. L. Windus, K. Wolinski,
        A. T. Wong, Q. Wu, C. Yang, Q. Yu, M. Zacharias, Z. Zhang, Y. Zhao,
                                and R. J. Harrison
                        "NWChem: Past, present, and future
                         J. Chem. Phys. 152, 184102 (2020)
                               doi:10.1063/5.0004997

                                      AUTHORS
                                      -------
  E. Apra, E. J. Bylaska, N. Govind, K. Kowalski, M. Valiev, D. Mejia-Rodriguez,
       A. Kunitsa, N. P. Bauman, A. Panyala, W. A. de Jong, T. P. Straatsma,
   H. J. J. van Dam, D. Wang, T. L. Windus, J. Hammond, J. Autschbach, A. Woods,
    K. Bhaskaran-Nair, J. Brabec, K. Lopata, S. A. Fischer, S. Krishnamoorthy,
     M. Jacquelin, W. Ma, M. Klemm, O. Villa, Y. Chen, V. Anisimov, F. Aquino,
     S. Hirata, M. T. Hackler, E. Hermes, L. Jensen, J. E. Moore, J. C. Becca,
      V. Konjkov, T. Risthaus, M. Malagoli, A. Marenich, A. Otero-de-la-Roza,
        J. Mullin, P. Nichols, R. Peverati, J. Pittner, Y. Zhao, P.-D. Fan,
        A. Fonari, M. J. Williamson, R. J. Harrison, J. R. Rehr, M. Dupuis,
     D. Silverstein, D. M. A. Smith, J. Nieplocha, V. Tipparaju, M. Krishnan,
     B. E. Van Kuiken, A. Vazquez-Mayagoitia, M. Swart, Q. Wu, T. Van Voorhis,
     A. A. Auer, M. Nooijen, L. D. Crosby, E. Brown, G. Cisneros, G. I. Fann,
   H. Fruchtl, J. Garza, K. Hirao, R. A. Kendall, J. A. Nichols, K. Tsemekhman,
    K. Wolinski, J. Anchell, D. E. Bernholdt, P. Borowski, T. Clark, D. Clerc,
   H. Dachsel, M. J. O. Deegan, K. Dyall, D. Elwood, E. Glendening, M. Gutowski,
   A. C. Hess, J. Jaffe, B. G. Johnson, J. Ju, R. Kobayashi, R. Kutteh, Z. Lin,
   R. Littlefield, X. Long, B. Meng, T. Nakajima, S. Niu, L. Pollack, M. Rosing,
   K. Glaesemann, G. Sandrone, M. Stave, H. Taylor, G. Thomas, J. H. van Lenthe,
                               A. T. Wong, Z. Zhang.

 Total times  cpu:     3620.9s     wall:     3620.9s
