 argument  1 = nwchem.in
  NWChem w/ OpenMP: maximum threads =    1
                                         
                                         


             Northwest Computational Chemistry Package (NWChem) 7.2.3
             --------------------------------------------------------


                    Environmental Molecular Sciences Laboratory
                       Pacific Northwest National Laboratory
                                Richland, WA 99352

                              Copyright (c) 1994-2022
                       Pacific Northwest National Laboratory
                            Battelle Memorial Institute

             NWChem is an open-source computational chemistry package
                        distributed under the terms of the
                      Educational Community License (ECL) 2.0
             A copy of the license is included with this distribution
                              in the LICENSE.TXT file

                                  ACKNOWLEDGMENT
                                  --------------

            This software and its documentation were developed at the
            EMSL at Pacific Northwest National Laboratory, a multiprogram
            national laboratory, operated for the U.S. Department of Energy
            by Battelle under Contract Number DE-AC05-76RL01830. Support
            for this work was provided by the Department of Energy Office
            of Biological and Environmental Research, Office of Basic
            Energy Sciences, and the Office of Advanced Scientific Computing.


           Job information
           ---------------

    hostname        = d864c237cb32
    program         = nwchem
    date            = Wed Jul  2 22:22:34 2025

    compiled        = Fri_May_02_22:05:35_2025
    source          = /opt/nwchem
    nwchem branch   = 7.2.3
    nwchem revision = N/A
    ga revision     = 5.9.1
    use scalapack   = T
    input           = nwchem.in
    prefix          = ni_singlepoint.
    data base       = ./ni_singlepoint.db
    status          = startup
    nproc           =        5
    time left       =     -1s



           Memory information
           ------------------

    heap     =    509724440 doubles =     3888.9 Mbytes
    stack    =    509724441 doubles =     3888.9 Mbytes
    global   =    291271111 doubles =     2222.2 Mbytes (distinct from heap & stack)
    total    =   1310719992 doubles =    10000.0 Mbytes
    verify   = yes
    hardfail = no 


           Directory information
           ---------------------

  0 permanent = .
  0 scratch   = .




                                NWChem Input Module
                                -------------------


                          Ni complex single-point energy
                          ------------------------------

 Scaling coordinates for geometry "geometry" by  1.889725989
 (inverse scale =  0.529177249)

 C1  symmetry detected

          ------
          auto-z
          ------
  no constraints, skipping    0.0000000000000000     
  no constraints, skipping    0.0000000000000000     


                             Geometry "geometry" -> ""
                             -------------------------

 Output coordinates in angstroms (scale by  1.889725989 to convert to a.u.)

  No.       Tag          Charge          X              Y              Z
 ---- ---------------- ---------- -------------- -------------- --------------
    1 C                    6.0000     1.63714262     0.40693906    -1.38553542
    2 O                    8.0000     1.40760171     1.24244152    -2.26721782
    3 Ni                  28.0000     0.06527408    -0.43170527    -0.70653106
    4 C                    6.0000    -1.24192457     0.41627565     0.30230675
    5 N                    7.0000    -2.18888934    -0.35807771     0.86555648
    6 N                    7.0000    -1.58879272     1.68882270     0.52367244
    7 C                    6.0000    -3.22715756     0.38603185     1.57232843
    8 C                    6.0000    -2.08755877    -1.78051466     0.86262415
    9 C                    6.0000    -2.89558196     1.82955590     1.17285900
   10 C                    6.0000    -0.85186913     2.83156554     0.08048845
   11 H                    1.0000    -4.21912376     0.07316480     1.24318065
   12 H                    1.0000    -3.15469691     0.22053258     2.65107012
   13 C                    6.0000    -2.63872276    -2.49525958    -0.20715339
   14 C                    6.0000    -1.42464883    -2.42016569     1.91697717
   15 H                    1.0000    -3.62010841     2.23994521     0.46470661
   16 H                    1.0000    -2.83159571     2.50469548     2.02650613
   17 C                    6.0000    -0.03422818     3.48914718     1.00417048
   18 C                    6.0000    -0.98995355     3.27326172    -1.23923114
   19 C                    6.0000    -2.49039164    -3.87870805    -0.21543595
   20 C                    6.0000    -3.39938687    -1.80535920    -1.32228266
   21 C                    6.0000    -1.31188693    -3.80538044     1.87524613
   22 C                    6.0000    -0.84438101    -1.64437285     3.08302248
   23 C                    6.0000     0.68141628     4.59926699     0.57003055
   24 C                    6.0000     0.07333766     3.03844423     2.44839503
   25 C                    6.0000    -0.25522719     4.38627583    -1.63004631
   26 C                    6.0000    -1.94985640     2.61244227    -2.20962492
   27 C                    6.0000    -1.83212457    -4.52916234     0.81422637
   28 H                    1.0000    -2.89705801    -4.45462182    -1.03783143
   29 C                    6.0000    -4.87358305    -2.21719891    -1.29901702
   30 C                    6.0000    -2.77093279    -2.07364736    -2.68978557
   31 H                    1.0000    -3.34654293    -0.72960620    -1.14538542
   32 H                    1.0000    -0.80160039    -4.32468628     2.67764566
   33 C                    6.0000     0.64695963    -1.92521001     3.26529326
   34 C                    6.0000    -1.62004941    -1.94620708     4.36740776
   35 H                    1.0000    -0.94437335    -0.57987274     2.86223511
   36 C                    6.0000     0.57708877     5.04071973    -0.73764933
   37 H                    1.0000     1.33140744     5.12103341     1.26240029
   38 C                    6.0000    -0.47297372     4.10756894     3.39863647
   39 C                    6.0000     1.50874147     2.66360526     2.81295584
   40 H                    1.0000    -0.53529427     2.13892328     2.56600373
   41 H                    1.0000    -0.32931903     4.74301075    -2.64949930
   42 C                    6.0000    -1.32509680     2.35509404    -3.58061519
   43 C                    6.0000    -3.21782762     3.46144327    -2.35419126
   44 H                    1.0000    -2.22928486     1.64226371    -1.79256175
   45 H                    1.0000    -1.72476483    -5.60629033     0.79074373
   46 H                    1.0000    -5.32697138    -2.01279098    -0.32710604
   47 H                    1.0000    -4.98468911    -3.28516214    -1.49787482
   48 H                    1.0000    -5.43487811    -1.67373437    -2.06107069
   49 H                    1.0000    -1.72663539    -1.75518380    -2.70678263
   50 H                    1.0000    -3.30782940    -1.52783663    -3.46807927
   51 H                    1.0000    -2.80735603    -3.13561860    -2.94243190
   52 H                    1.0000     1.19696050    -1.70080883     2.35188427
   53 H                    1.0000     0.82783736    -2.97046021     3.52545536
   54 H                    1.0000     1.05350872    -1.30681597     4.06792805
   55 H                    1.0000    -2.68536596    -1.73873077     4.24929328
   56 H                    1.0000    -1.24118319    -1.34505092     5.19578478
   57 H                    1.0000    -1.51785976    -2.99855113     4.64138265
   58 H                    1.0000     1.14612413     5.90267786    -1.06334261
   59 H                    1.0000    -1.50309944     4.37561429     3.15469167
   60 H                    1.0000     0.12543478     5.01922919     3.34280365
   61 H                    1.0000    -0.44446206     3.75303379     4.43104236
   62 H                    1.0000     1.89320216     1.89289908     2.14569356
   63 H                    1.0000     1.55611101     2.29098478     3.83901229
   64 H                    1.0000     2.17187185     3.52843478     2.74190377
   65 H                    1.0000    -0.38189652     1.82144457    -3.47745685
   66 H                    1.0000    -1.13542437     3.29073876    -4.11181882
   67 H                    1.0000    -2.01217610     1.76837422    -4.19511639
   68 H                    1.0000    -3.69744361     3.65194313    -1.39199682
   69 H                    1.0000    -3.93904581     2.96568043    -3.00744463
   70 H                    1.0000    -2.97439390     4.43047598    -2.79618407
   71 N                    7.0000     1.41855142    -1.13027909    -1.81779127
   72 C                    6.0000     4.69564032     1.40871810     1.47897940
   73 C                    6.0000     4.35720427     2.27992910     0.45203150
   74 H                    1.0000     4.26524076    -0.48236814     2.40198636
   75 C                    6.0000     4.01917193     0.20318649     1.60093774
   76 C                    6.0000     3.36257689     1.94136054    -0.45576611
   77 C                    6.0000     2.69518620     0.71730397    -0.35241328
   78 C                    6.0000     3.02177070    -0.13192354     0.69829558
   79 H                    1.0000     3.09172112     2.61614539    -1.25738584
   80 H                    1.0000     2.49227629    -1.06491662     0.80842067
   81 H                    1.0000     5.47589211     1.66872143     2.18361689
   82 H                    1.0000     4.87882424     3.22536939     0.35450376
   83 C                    6.0000     2.17640929    -2.27330818    -1.36341587
   84 C                    6.0000     3.42092842    -2.54876886    -1.92174645
   85 C                    6.0000     1.66296502    -3.14760132    -0.40702354
   86 C                    6.0000     4.15373606    -3.65187341    -1.50966358
   87 H                    1.0000     3.81653944    -1.88822936    -2.68185487
   88 C                    6.0000     2.40754488    -4.24222616     0.02004439
   89 H                    1.0000     0.67855346    -2.96690765     0.01347500
   90 C                    6.0000     3.65662021    -4.49794864    -0.52780053
   91 H                    1.0000     5.12189071    -3.84671207    -1.95313307
   92 H                    1.0000     2.00768085    -4.90112887     0.78267906
   93 H                    1.0000     4.23669616    -5.35202739    -0.19987411
   94 C                    6.0000     1.11609066    -1.22615981    -3.25795852
   95 H                    1.0000     2.01989368    -1.08831794    -3.85618063
   96 H                    1.0000     0.68588909    -2.20240141    -3.49039563
   97 H                    1.0000     0.41533550    -0.44438861    -3.53009837

      Atomic Mass 
      ----------- 

      C                 12.000000
      O                 15.994910
      Ni                57.935300
      N                 14.003070
      H                  1.007825


 Effective nuclear repulsion energy (a.u.)    7270.0168257810

            Nuclear Dipole moment (a.u.) 
            ----------------------------
        X                 Y               Z
 ---------------- ---------------- ----------------
     0.0000000000     0.0000000000     0.0000000000



                                Z-matrix (autoz)
                                -------- 

 Units are Angstrom for bonds and degrees for angles

      Type          Name      I     J     K     L     M      Value
      ----------- --------  ----- ----- ----- ----- ----- ----------
    1 Stretch                  1     2                       1.23617
    2 Stretch                  1     3                       1.90660
    3 Stretch                  1    71                       1.61173
    4 Stretch                  1    77                       1.51100
    5 Stretch                  3     4                       1.85623
    6 Stretch                  3    71                       1.88528
    7 Stretch                  4     5                       1.34671
    8 Stretch                  4     6                       1.33742
    9 Stretch                  5     7                       1.45987
   10 Stretch                  5     8                       1.42604
   11 Stretch                  6     9                       1.46593
   12 Stretch                  6    10                       1.43015
   13 Stretch                  7     9                       1.53404
   14 Stretch                  7    11                       1.09097
   15 Stretch                  7    12                       1.09377
   16 Stretch                  8    13                       1.39967
   17 Stretch                  8    14                       1.40009
   18 Stretch                  9    15                       1.09309
   19 Stretch                  9    16                       1.09024
   20 Stretch                 10    17                       1.39791
   21 Stretch                 10    18                       1.39851
   22 Stretch                 13    19                       1.39140
   23 Stretch                 13    20                       1.51594
   24 Stretch                 14    21                       1.39042
   25 Stretch                 14    22                       1.51599
   26 Stretch                 17    23                       1.39032
   27 Stretch                 17    24                       1.51674
   28 Stretch                 18    25                       1.38973
   29 Stretch                 18    26                       1.51650
   30 Stretch                 19    27                       1.38442
   31 Stretch                 19    28                       1.08323
   32 Stretch                 20    29                       1.53082
   33 Stretch                 20    30                       1.52872
   34 Stretch                 20    31                       1.09148
   35 Stretch                 21    27                       1.38574
   36 Stretch                 21    32                       1.08347
   37 Stretch                 22    33                       1.52846
   38 Stretch                 22    34                       1.53049
   39 Stretch                 22    35                       1.09174
   40 Stretch                 23    36                       1.38412
   41 Stretch                 23    37                       1.08356
   42 Stretch                 24    38                       1.53116
   43 Stretch                 24    39                       1.52768
   44 Stretch                 24    40                       1.09243
   45 Stretch                 25    36                       1.38471
   46 Stretch                 25    41                       1.08261
   47 Stretch                 26    42                       1.52845
   48 Stretch                 26    43                       1.53279
   49 Stretch                 26    44                       1.09237
   50 Stretch                 27    45                       1.08272
   51 Stretch                 29    46                       1.09177
   52 Stretch                 29    47                       1.09199
   53 Stretch                 29    48                       1.09139
   54 Stretch                 30    49                       1.09191
   55 Stretch                 30    50                       1.09175
   56 Stretch                 30    51                       1.09222
   57 Stretch                 33    52                       1.08957
   58 Stretch                 33    53                       1.09222
   59 Stretch                 33    54                       1.09175
   60 Stretch                 34    55                       1.09174
   61 Stretch                 34    56                       1.09139
   62 Stretch                 34    57                       1.09221
   63 Stretch                 36    58                       1.08298
   64 Stretch                 38    59                       1.09202
   65 Stretch                 38    60                       1.09194
   66 Stretch                 38    61                       1.09196
   67 Stretch                 39    62                       1.08951
   68 Stretch                 39    63                       1.09265
   69 Stretch                 39    64                       1.09212
   70 Stretch                 42    65                       1.08860
   71 Stretch                 42    66                       1.09251
   72 Stretch                 42    67                       1.09267
   73 Stretch                 43    68                       1.09185
   74 Stretch                 43    69                       1.09210
   75 Stretch                 43    70                       1.09254
   76 Stretch                 71    83                       1.44476
   77 Stretch                 71    94                       1.47471
   78 Stretch                 72    73                       1.38859
   79 Stretch                 72    75                       1.38773
   80 Stretch                 72    81                       1.08301
   81 Stretch                 73    76                       1.38853
   82 Stretch                 73    82                       1.08418
   83 Stretch                 74    75                       1.08269
   84 Stretch                 75    78                       1.38632
   85 Stretch                 76    77                       1.39800
   86 Stretch                 76    79                       1.08226
   87 Stretch                 77    78                       1.38990
   88 Stretch                 78    80                       1.07841
   89 Stretch                 83    84                       1.39156
   90 Stretch                 83    85                       1.39381
   91 Stretch                 84    86                       1.38696
   92 Stretch                 84    87                       1.08194
   93 Stretch                 85    88                       1.39104
   94 Stretch                 85    89                       1.08560
   95 Stretch                 86    90                       1.38817
   96 Stretch                 86    91                       1.08257
   97 Stretch                 88    90                       1.38770
   98 Stretch                 88    92                       1.08428
   99 Stretch                 90    93                       1.08327
  100 Stretch                 94    95                       1.09258
  101 Stretch                 94    96                       1.09186
  102 Stretch                 94    97                       1.08457
  103 Bend                     1     3     4               124.97335
  104 Bend                     1     3    71                50.30343
  105 Bend                     1    71     3                65.53465
  106 Bend                     1    71    83               126.80488
  107 Bend                     1    71    94               110.59381
  108 Bend                     1    77    76               117.61833
  109 Bend                     1    77    78               123.77303
  110 Bend                     2     1     3               113.46661
  111 Bend                     2     1    71               115.35111
  112 Bend                     2     1    77               118.61092
  113 Bend                     3     1    71                64.16192
  114 Bend                     3     1    77               115.09623
  115 Bend                     3     4     5               117.37563
  116 Bend                     3     4     6               135.01325
  117 Bend                     3    71    83               118.96743
  118 Bend                     3    71    94               116.90453
  119 Bend                     4     5     7               114.17357
  120 Bend                     4     5     8               121.51477
  121 Bend                     4     6     9               113.31872
  122 Bend                     4     6    10               125.12390
  123 Bend                     5     4     6               107.18806
  124 Bend                     5     7     9               101.52759
  125 Bend                     5     7    11               110.75827
  126 Bend                     5     7    12               110.68570
  127 Bend                     5     8    13               118.87841
  128 Bend                     5     8    14               119.19624
  129 Bend                     6     9     7               102.57177
  130 Bend                     6     9    15               109.87780
  131 Bend                     6     9    16               110.72477
  132 Bend                     6    10    17               118.19656
  133 Bend                     6    10    18               119.59819
  134 Bend                     7     5     8               124.05240
  135 Bend                     7     9    15               112.25458
  136 Bend                     7     9    16               113.04855
  137 Bend                     8    13    19               118.05409
  138 Bend                     8    13    20               121.83130
  139 Bend                     8    14    21               118.09586
  140 Bend                     8    14    22               121.78009
  141 Bend                     9     6    10               121.32303
  142 Bend                     9     7    11               112.81909
  143 Bend                     9     7    12               112.63693
  144 Bend                    10    17    23               118.05653
  145 Bend                    10    17    24               122.06431
  146 Bend                    10    18    25               117.78265
  147 Bend                    10    18    26               121.91864
  148 Bend                    11     7    12               108.32465
  149 Bend                    13     8    14               121.91881
  150 Bend                    13    19    27               120.89162
  151 Bend                    13    19    28               119.54595
  152 Bend                    13    20    29               110.46288
  153 Bend                    13    20    30               111.83137
  154 Bend                    13    20    31               107.75971
  155 Bend                    14    21    27               120.85620
  156 Bend                    14    21    32               119.56890
  157 Bend                    14    22    33               111.78759
  158 Bend                    14    22    34               110.52213
  159 Bend                    14    22    35               107.96051
  160 Bend                    15     9    16               108.28021
  161 Bend                    17    10    18               122.18929
  162 Bend                    17    23    36               120.72236
  163 Bend                    17    23    37               119.58594
  164 Bend                    17    24    38               110.98626
  165 Bend                    17    24    39               111.51691
  166 Bend                    17    24    40               107.91942
  167 Bend                    18    25    36               121.00140
  168 Bend                    18    25    41               119.50718
  169 Bend                    18    26    42               112.86795
  170 Bend                    18    26    43               110.03574
  171 Bend                    18    26    44               107.73518
  172 Bend                    19    13    20               120.10644
  173 Bend                    19    27    21               120.17052
  174 Bend                    19    27    45               119.89619
  175 Bend                    20    29    46               111.28938
  176 Bend                    20    29    47               110.99762
  177 Bend                    20    29    48               110.52968
  178 Bend                    20    30    49               110.84929
  179 Bend                    20    30    50               110.35278
  180 Bend                    20    30    51               111.33677
  181 Bend                    21    14    22               120.12355
  182 Bend                    21    27    45               119.93324
  183 Bend                    22    33    52               110.77593
  184 Bend                    22    33    53               111.45839
  185 Bend                    22    33    54               110.30009
  186 Bend                    22    34    55               111.48588
  187 Bend                    22    34    56               110.63393
  188 Bend                    22    34    57               110.67725
  189 Bend                    23    17    24               119.87385
  190 Bend                    23    36    25               120.22790
  191 Bend                    23    36    58               119.89243
  192 Bend                    24    38    59               111.67411
  193 Bend                    24    38    60               110.83635
  194 Bend                    24    38    61               110.53236
  195 Bend                    24    39    62               111.03740
  196 Bend                    24    39    63               110.39582
  197 Bend                    24    39    64               111.14293
  198 Bend                    25    18    26               120.24390
  199 Bend                    25    36    58               119.87944
  200 Bend                    26    42    65               110.59110
  201 Bend                    26    42    66               111.27834
  202 Bend                    26    42    67               109.74467
  203 Bend                    26    43    68               112.14179
  204 Bend                    26    43    69               110.56530
  205 Bend                    26    43    70               110.18874
  206 Bend                    27    19    28               119.56234
  207 Bend                    27    21    32               119.57182
  208 Bend                    29    20    30               111.23978
  209 Bend                    29    20    31               108.01805
  210 Bend                    30    20    31               107.34020
  211 Bend                    33    22    34               110.98909
  212 Bend                    33    22    35               107.01580
  213 Bend                    34    22    35               108.39629
  214 Bend                    36    23    37               119.69102
  215 Bend                    36    25    41               119.49003
  216 Bend                    38    24    39               111.00639
  217 Bend                    38    24    40               108.01995
  218 Bend                    39    24    40               107.20291
  219 Bend                    42    26    43               110.29129
  220 Bend                    42    26    44               107.30663
  221 Bend                    43    26    44               108.44163
  222 Bend                    46    29    47               107.63602
  223 Bend                    46    29    48               108.34760
  224 Bend                    47    29    48               107.90981
  225 Bend                    49    30    50               108.26578
  226 Bend                    49    30    51               108.17220
  227 Bend                    50    30    51               107.74593
  228 Bend                    52    33    53               108.25121
  229 Bend                    52    33    54               108.16084
  230 Bend                    53    33    54               107.77500
  231 Bend                    55    34    56               108.43188
  232 Bend                    55    34    57               107.55014
  233 Bend                    56    34    57               107.92893
  234 Bend                    59    38    60               107.49397
  235 Bend                    59    38    61               108.39284
  236 Bend                    60    38    61               107.76466
  237 Bend                    62    39    63               108.57713
  238 Bend                    62    39    64               107.82186
  239 Bend                    63    39    64               107.74746
  240 Bend                    65    42    66               108.38989
  241 Bend                    65    42    67               109.56565
  242 Bend                    66    42    67               107.19259
  243 Bend                    68    43    69               108.43592
  244 Bend                    68    43    70               107.43595
  245 Bend                    69    43    70               107.92627
  246 Bend                    71     1    77               118.31050
  247 Bend                    71    83    84               119.97051
  248 Bend                    71    83    85               121.25418
  249 Bend                    71    94    95               110.90649
  250 Bend                    71    94    96               110.29417
  251 Bend                    71    94    97               109.31104
  252 Bend                    72    73    76               120.33923
  253 Bend                    72    73    82               119.76111
  254 Bend                    72    75    74               120.28469
  255 Bend                    72    75    78               120.23057
  256 Bend                    73    72    75               119.42098
  257 Bend                    73    72    81               120.40770
  258 Bend                    73    76    77               120.47240
  259 Bend                    73    76    79               120.76339
  260 Bend                    74    75    78               119.48471
  261 Bend                    75    72    81               120.17008
  262 Bend                    75    78    77               120.90175
  263 Bend                    75    78    80               119.72874
  264 Bend                    76    73    82               119.89758
  265 Bend                    76    77    78               118.59989
  266 Bend                    77    76    79               118.76383
  267 Bend                    77    78    80               119.36925
  268 Bend                    83    71    94               111.30187
  269 Bend                    83    84    86               120.71412
  270 Bend                    83    84    87               119.21192
  271 Bend                    83    85    88               120.47020
  272 Bend                    83    85    89               119.69708
  273 Bend                    84    83    85               118.72409
  274 Bend                    84    86    90               120.37727
  275 Bend                    84    86    91               119.60044
  276 Bend                    85    88    90               120.37138
  277 Bend                    85    88    92               119.78450
  278 Bend                    86    84    87               120.07339
  279 Bend                    86    90    88               119.29154
  280 Bend                    86    90    93               120.19139
  281 Bend                    88    85    89               119.83037
  282 Bend                    88    90    93               120.51560
  283 Bend                    90    86    91               120.02063
  284 Bend                    90    88    92               119.84373
  285 Bend                    95    94    96               108.79453
  286 Bend                    95    94    97               107.82755
  287 Bend                    96    94    97               109.66359
  288 Torsion                  1     3     4     5        -170.66683
  289 Torsion                  1     3     4     6          17.92549
  290 Torsion                  1     3    71    83         120.02885
  291 Torsion                  1     3    71    94        -101.68110
  292 Torsion                  1    71     4     5        -168.12965
  293 Torsion                  1    71     4     6          21.73520
  294 Torsion                  4     3     1    71        -176.07987
  295 Torsion                  1    71    83    84         -79.68767
  296 Torsion                  1    71    83    85         102.94845
  297 Torsion                  1    71    94    95          76.02432
  298 Torsion                  1    71    94    96        -163.38072
  299 Torsion                  1    71    94    97         -42.73441
  300 Torsion                  1    77    76    73        -179.19195
  301 Torsion                  1    77    76    79           0.58481
  302 Torsion                  1    77    78    75         178.94255
  303 Torsion                  1    77    78    80          -0.87049
  304 Torsion                  2     1     3     4         -68.11714
  305 Torsion                  2     1     3    71         107.96273
  306 Torsion                  2     1    71     3        -105.07993
  307 Torsion                  2     1    71    83         146.00882
  308 Torsion                  2     1    71    94           6.02729
  309 Torsion                  2     1    77    76          -0.16460
  310 Torsion                  2     1    77    78         178.74206
  311 Torsion                  3     1    71    83        -108.91125
  312 Torsion                  3     1    71    94         111.10721
  313 Torsion                  3     1    77    76        -139.30891
  314 Torsion                  3     1    77    78          39.59776
  315 Torsion                  3     4     5     7        -176.37296
  316 Torsion                  3     4     5     8           9.25067
  317 Torsion                  3     4     6     9         166.91540
  318 Torsion                  3     4     6    10          -7.55941
  319 Torsion                  3    71     1    77         105.92774
  320 Torsion                  3    71    83    84        -159.49220
  321 Torsion                  3    71    83    85          23.14392
  322 Torsion                  3    71    94    95         148.23935
  323 Torsion                  3    71    94    96         -91.16569
  324 Torsion                  3    71    94    97          29.48063
  325 Torsion                  4     3     1    77          73.12297
  326 Torsion                  4     5     7     9           8.62202
  327 Torsion                  4     5     7    11         128.66103
  328 Torsion                  4     5     7    12        -111.17260
  329 Torsion                  4     5     8    13         -89.87772
  330 Torsion                  4     5     8    14          89.21000
  331 Torsion                  4     6     9     7          10.12147
  332 Torsion                  4     6     9    15        -109.43227
  333 Torsion                  4     6     9    16         131.00263
  334 Torsion                  4     6    10    17        -100.66506
  335 Torsion                  4     6    10    18          80.75612
  336 Torsion                  5     4    71    83         -49.58250
  337 Torsion                  5     4    71    94          90.69094
  338 Torsion                  4     5     3    71        -173.76092
  339 Torsion                  5     4     6     9          -5.10194
  340 Torsion                  5     4     6    10        -179.57674
  341 Torsion                  5     7     9     6         -10.33292
  342 Torsion                  5     7     9    15         107.54974
  343 Torsion                  5     7     9    16        -129.60193
  344 Torsion                  5     8    13    19         177.85589
  345 Torsion                  5     8    13    20          -3.18273
  346 Torsion                  5     8    14    21        -178.51816
  347 Torsion                  5     8    14    22           1.74004
  348 Torsion                  6     4    71    83         140.28236
  349 Torsion                  6     4    71    94         -79.44421
  350 Torsion                  4     6     3    71         176.58457
  351 Torsion                  6     4     5     7          -2.72038
  352 Torsion                  6     4     5     8        -177.09675
  353 Torsion                  6     9     7    11        -128.90416
  354 Torsion                  6     9     7    12         108.06921
  355 Torsion                  6    10    17    23         179.96561
  356 Torsion                  6    10    17    24          -0.87464
  357 Torsion                  6    10    18    25        -179.93198
  358 Torsion                  6    10    18    26           2.75597
  359 Torsion                  7     5     8    13          96.31671
  360 Torsion                  7     5     8    14         -84.59558
  361 Torsion                  7     9     6    10        -175.16800
  362 Torsion                  8     5     7     9        -177.16491
  363 Torsion                  8     5     7    11         -57.12591
  364 Torsion                  8     5     7    12          63.04047
  365 Torsion                  8    13    19    27           0.84596
  366 Torsion                  8    13    19    28        -179.26400
  367 Torsion                  8    13    20    29        -113.75102
  368 Torsion                  8    13    20    30         121.77514
  369 Torsion                  8    13    20    31           4.03593
  370 Torsion                  8    14    21    27           0.50499
  371 Torsion                  8    14    21    32         179.86388
  372 Torsion                  8    14    22    33        -123.89892
  373 Torsion                  8    14    22    34         111.94078
  374 Torsion                  8    14    22    35          -6.45604
  375 Torsion                  9     6    10    17          85.27596
  376 Torsion                  9     6    10    18         -93.30286
  377 Torsion                 10     6     9    15          65.27826
  378 Torsion                 10     6     9    16         -54.28684
  379 Torsion                 10    17    23    36           0.38490
  380 Torsion                 10    17    23    37        -179.31497
  381 Torsion                 10    17    24    38        -115.42562
  382 Torsion                 10    17    24    39         120.24621
  383 Torsion                 10    17    24    40           2.75532
  384 Torsion                 10    18    25    36          -0.49861
  385 Torsion                 10    18    25    41         179.06899
  386 Torsion                 10    18    26    42        -134.42557
  387 Torsion                 10    18    26    43         101.90323
  388 Torsion                 10    18    26    44         -16.14066
  389 Torsion                 11     7     9    15         -11.02150
  390 Torsion                 11     7     9    16         111.82682
  391 Torsion                 12     7     9    15        -134.04814
  392 Torsion                 12     7     9    16         -11.19981
  393 Torsion                 13     8    14    21           0.54070
  394 Torsion                 13     8    14    22        -179.20111
  395 Torsion                 13    19    27    21           0.15955
  396 Torsion                 13    19    27    45        -179.91703
  397 Torsion                 13    20    29    46          55.99689
  398 Torsion                 13    20    29    47         -63.86084
  399 Torsion                 13    20    29    48         176.43903
  400 Torsion                 13    20    30    49         -57.34623
  401 Torsion                 13    20    30    50        -177.28000
  402 Torsion                 13    20    30    51          63.12146
  403 Torsion                 14     8    13    19          -1.20586
  404 Torsion                 14     8    13    20         177.75552
  405 Torsion                 14    21    27    19          -0.85680
  406 Torsion                 14    21    27    45         179.21981
  407 Torsion                 14    22    33    52          56.60526
  408 Torsion                 14    22    33    53         -63.99451
  409 Torsion                 14    22    33    54         176.32636
  410 Torsion                 14    22    34    55         -55.95588
  411 Torsion                 14    22    34    56        -176.70643
  412 Torsion                 14    22    34    57          63.70939
  413 Torsion                 17    10    18    25           1.54806
  414 Torsion                 17    10    18    26        -175.76399
  415 Torsion                 17    23    36    25           0.61856
  416 Torsion                 17    23    36    58        -179.56008
  417 Torsion                 17    24    38    59          56.02936
  418 Torsion                 17    24    38    60         -63.79660
  419 Torsion                 17    24    38    61         176.78750
  420 Torsion                 17    24    39    62         -56.47222
  421 Torsion                 17    24    39    63        -176.94751
  422 Torsion                 17    24    39    64          63.54920
  423 Torsion                 18    10    17    23          -1.49457
  424 Torsion                 18    10    17    24         177.66518
  425 Torsion                 18    25    36    23          -0.55991
  426 Torsion                 18    25    36    58         179.61870
  427 Torsion                 18    26    42    65          51.90764
  428 Torsion                 18    26    42    66         -68.62188
  429 Torsion                 18    26    42    67         172.90092
  430 Torsion                 18    26    43    68         -55.64919
  431 Torsion                 18    26    43    69        -176.80230
  432 Torsion                 18    26    43    70          63.97405
  433 Torsion                 19    13    20    29          65.18946
  434 Torsion                 19    13    20    30         -59.28438
  435 Torsion                 19    13    20    31        -177.02359
  436 Torsion                 19    27    21    32         179.78433
  437 Torsion                 20    13    19    27        -178.13402
  438 Torsion                 20    13    19    28           1.75601
  439 Torsion                 21    14    22    33          56.36442
  440 Torsion                 21    14    22    34         -67.79589
  441 Torsion                 21    14    22    35         173.80729
  442 Torsion                 21    27    19    28        -179.73047
  443 Torsion                 22    14    21    27        -179.74877
  444 Torsion                 22    14    21    32          -0.38988
  445 Torsion                 23    17    24    38          63.71925
  446 Torsion                 23    17    24    39         -60.60892
  447 Torsion                 23    17    24    40        -178.09981
  448 Torsion                 23    36    25    41         179.87242
  449 Torsion                 24    17    23    36        -178.79392
  450 Torsion                 24    17    23    37           1.50622
  451 Torsion                 25    18    26    42          48.32725
  452 Torsion                 25    18    26    43         -75.34395
  453 Torsion                 25    18    26    44         166.61217
  454 Torsion                 25    36    23    37        -179.68190
  455 Torsion                 26    18    25    36         176.86042
  456 Torsion                 26    18    25    41          -3.57198
  457 Torsion                 28    19    27    45           0.19295
  458 Torsion                 29    20    30    49         178.61444
  459 Torsion                 29    20    30    50          58.68067
  460 Torsion                 29    20    30    51         -60.91787
  461 Torsion                 30    20    29    46        -179.19140
  462 Torsion                 30    20    29    47          60.95087
  463 Torsion                 30    20    29    48         -58.74926
  464 Torsion                 31    20    29    46         -61.63129
  465 Torsion                 31    20    29    47         178.51099
  466 Torsion                 31    20    29    48          58.81085
  467 Torsion                 31    20    30    49          60.64394
  468 Torsion                 31    20    30    50         -59.28983
  469 Torsion                 31    20    30    51        -178.88837
  470 Torsion                 32    21    27    45          -0.13906
  471 Torsion                 33    22    34    55         179.42687
  472 Torsion                 33    22    34    56          58.67633
  473 Torsion                 33    22    34    57         -60.90786
  474 Torsion                 34    22    33    52        -179.49652
  475 Torsion                 34    22    33    53          59.90371
  476 Torsion                 34    22    33    54         -59.77542
  477 Torsion                 35    22    33    52         -61.40394
  478 Torsion                 35    22    33    53         177.99628
  479 Torsion                 35    22    33    54          58.31715
  480 Torsion                 35    22    34    55          62.17478
  481 Torsion                 35    22    34    56         -58.57577
  482 Torsion                 35    22    34    57        -178.15995
  483 Torsion                 37    23    36    58           0.13947
  484 Torsion                 38    24    39    62         179.21093
  485 Torsion                 38    24    39    63          58.73564
  486 Torsion                 38    24    39    64         -60.76765
  487 Torsion                 39    24    38    59        -179.35314
  488 Torsion                 39    24    38    60          60.82091
  489 Torsion                 39    24    38    61         -58.59499
  490 Torsion                 40    24    38    59         -62.09065
  491 Torsion                 40    24    38    60         178.08339
  492 Torsion                 40    24    38    61          58.66749
  493 Torsion                 40    24    39    62          61.45046
  494 Torsion                 40    24    39    63         -59.02483
  495 Torsion                 40    24    39    64        -178.52813
  496 Torsion                 41    25    36    58           0.05103
  497 Torsion                 42    26    43    68         179.19191
  498 Torsion                 42    26    43    69          58.03880
  499 Torsion                 42    26    43    70         -61.18485
  500 Torsion                 43    26    42    65         175.43760
  501 Torsion                 43    26    42    66          54.90808
  502 Torsion                 43    26    42    67         -63.56912
  503 Torsion                 44    26    42    65         -66.62739
  504 Torsion                 44    26    42    66         172.84309
  505 Torsion                 44    26    42    67          54.36589
  506 Torsion                 44    26    43    68          61.95751
  507 Torsion                 44    26    43    69         -59.19559
  508 Torsion                 44    26    43    70        -178.41925
  509 Torsion                 71     1    77    76         147.80982
  510 Torsion                 71     1    77    78         -33.28351
  511 Torsion                 71     3     1    77        -110.79716
  512 Torsion                 71    83    84    86        -179.14511
  513 Torsion                 71    83    84    87           1.12942
  514 Torsion                 71    83    85    88        -179.91627
  515 Torsion                 71    83    85    89          -0.47458
  516 Torsion                 72    73    76    77          -0.36991
  517 Torsion                 72    73    76    79         179.85782
  518 Torsion                 72    75    78    77           1.00046
  519 Torsion                 72    75    78    80        -179.18717
  520 Torsion                 73    72    75    74        -179.42028
  521 Torsion                 73    72    75    78           0.51440
  522 Torsion                 73    76    77    78           1.84317
  523 Torsion                 74    75    72    81           0.17659
  524 Torsion                 74    75    78    77        -179.06434
  525 Torsion                 74    75    78    80           0.74803
  526 Torsion                 75    72    73    76          -0.82256
  527 Torsion                 75    72    73    82         179.70267
  528 Torsion                 75    78    77    76          -2.16084
  529 Torsion                 76    73    72    81         179.58153
  530 Torsion                 76    77    78    80         178.02612
  531 Torsion                 77     1    71    83          -2.98352
  532 Torsion                 77     1    71    94        -142.96505
  533 Torsion                 77    76    73    82         179.10414
  534 Torsion                 78    75    72    81        -179.88872
  535 Torsion                 78    77    76    79        -178.38006
  536 Torsion                 79    76    73    82          -0.66813
  537 Torsion                 81    72    73    82           0.10677
  538 Torsion                  4     3    83    71        -173.26113
  539 Torsion                 83    71    94    95         -70.42871
  540 Torsion                 83    71    94    96          50.16625
  541 Torsion                 83    71    94    97         170.81257
  542 Torsion                 83    84    86    90          -0.20355
  543 Torsion                 83    84    86    91        -179.73406
  544 Torsion                 83    85    88    90          -1.76021
  545 Torsion                 83    85    88    92         178.46668
  546 Torsion                 84    83    71    94          60.06535
  547 Torsion                 84    83    85    88           2.68777
  548 Torsion                 84    83    85    89        -177.87053
  549 Torsion                 84    86    90    88           1.16586
  550 Torsion                 84    86    90    93        -179.27452
  551 Torsion                 85    83    71    94        -117.29854
  552 Torsion                 85    83    84    86          -1.71483
  553 Torsion                 85    83    84    87         178.55970
  554 Torsion                 85    88    90    86          -0.18921
  555 Torsion                 85    88    90    93        -179.74737
  556 Torsion                 86    90    88    92         179.58377
  557 Torsion                 87    84    86    90         179.51956
  558 Torsion                 87    84    86    91          -0.01095
  559 Torsion                 88    90    86    91        -179.30561
  560 Torsion                 89    85    88    90         178.79884
  561 Torsion                 89    85    88    92          -0.97428
  562 Torsion                 91    86    90    93           0.25401
  563 Torsion                 92    88    90    93           0.02561
  564 Torsion                  4     3    94    71         169.50256


            XYZ format geometry
            -------------------
    97
 geometry
 C                     1.63714262     0.40693906    -1.38553542
 O                     1.40760171     1.24244152    -2.26721782
 Ni                    0.06527408    -0.43170527    -0.70653106
 C                    -1.24192457     0.41627565     0.30230675
 N                    -2.18888934    -0.35807771     0.86555648
 N                    -1.58879272     1.68882270     0.52367244
 C                    -3.22715756     0.38603185     1.57232843
 C                    -2.08755877    -1.78051466     0.86262415
 C                    -2.89558196     1.82955590     1.17285900
 C                    -0.85186913     2.83156554     0.08048845
 H                    -4.21912376     0.07316480     1.24318065
 H                    -3.15469691     0.22053258     2.65107012
 C                    -2.63872276    -2.49525958    -0.20715339
 C                    -1.42464883    -2.42016569     1.91697717
 H                    -3.62010841     2.23994521     0.46470661
 H                    -2.83159571     2.50469548     2.02650613
 C                    -0.03422818     3.48914718     1.00417048
 C                    -0.98995355     3.27326172    -1.23923114
 C                    -2.49039164    -3.87870805    -0.21543595
 C                    -3.39938687    -1.80535920    -1.32228266
 C                    -1.31188693    -3.80538044     1.87524613
 C                    -0.84438101    -1.64437285     3.08302248
 C                     0.68141628     4.59926699     0.57003055
 C                     0.07333766     3.03844423     2.44839503
 C                    -0.25522719     4.38627583    -1.63004631
 C                    -1.94985640     2.61244227    -2.20962492
 C                    -1.83212457    -4.52916234     0.81422637
 H                    -2.89705801    -4.45462182    -1.03783143
 C                    -4.87358305    -2.21719891    -1.29901702
 C                    -2.77093279    -2.07364736    -2.68978557
 H                    -3.34654293    -0.72960620    -1.14538542
 H                    -0.80160039    -4.32468628     2.67764566
 C                     0.64695963    -1.92521001     3.26529326
 C                    -1.62004941    -1.94620708     4.36740776
 H                    -0.94437335    -0.57987274     2.86223511
 C                     0.57708877     5.04071973    -0.73764933
 H                     1.33140744     5.12103341     1.26240029
 C                    -0.47297372     4.10756894     3.39863647
 C                     1.50874147     2.66360526     2.81295584
 H                    -0.53529427     2.13892328     2.56600373
 H                    -0.32931903     4.74301075    -2.64949930
 C                    -1.32509680     2.35509404    -3.58061519
 C                    -3.21782762     3.46144327    -2.35419126
 H                    -2.22928486     1.64226371    -1.79256175
 H                    -1.72476483    -5.60629033     0.79074373
 H                    -5.32697138    -2.01279098    -0.32710604
 H                    -4.98468911    -3.28516214    -1.49787482
 H                    -5.43487811    -1.67373437    -2.06107069
 H                    -1.72663539    -1.75518380    -2.70678263
 H                    -3.30782940    -1.52783663    -3.46807927
 H                    -2.80735603    -3.13561860    -2.94243190
 H                     1.19696050    -1.70080883     2.35188427
 H                     0.82783736    -2.97046021     3.52545536
 H                     1.05350872    -1.30681597     4.06792805
 H                    -2.68536596    -1.73873077     4.24929328
 H                    -1.24118319    -1.34505092     5.19578478
 H                    -1.51785976    -2.99855113     4.64138265
 H                     1.14612413     5.90267786    -1.06334261
 H                    -1.50309944     4.37561429     3.15469167
 H                     0.12543478     5.01922919     3.34280365
 H                    -0.44446206     3.75303379     4.43104236
 H                     1.89320216     1.89289908     2.14569356
 H                     1.55611101     2.29098478     3.83901229
 H                     2.17187185     3.52843478     2.74190377
 H                    -0.38189652     1.82144457    -3.47745685
 H                    -1.13542437     3.29073876    -4.11181882
 H                    -2.01217610     1.76837422    -4.19511639
 H                    -3.69744361     3.65194313    -1.39199682
 H                    -3.93904581     2.96568043    -3.00744463
 H                    -2.97439390     4.43047598    -2.79618407
 N                     1.41855142    -1.13027909    -1.81779127
 C                     4.69564032     1.40871810     1.47897940
 C                     4.35720427     2.27992910     0.45203150
 H                     4.26524076    -0.48236814     2.40198636
 C                     4.01917193     0.20318649     1.60093774
 C                     3.36257689     1.94136054    -0.45576611
 C                     2.69518620     0.71730397    -0.35241328
 C                     3.02177070    -0.13192354     0.69829558
 H                     3.09172112     2.61614539    -1.25738584
 H                     2.49227629    -1.06491662     0.80842067
 H                     5.47589211     1.66872143     2.18361689
 H                     4.87882424     3.22536939     0.35450376
 C                     2.17640929    -2.27330818    -1.36341587
 C                     3.42092842    -2.54876886    -1.92174645
 C                     1.66296502    -3.14760132    -0.40702354
 C                     4.15373606    -3.65187341    -1.50966358
 H                     3.81653944    -1.88822936    -2.68185487
 C                     2.40754488    -4.24222616     0.02004439
 H                     0.67855346    -2.96690765     0.01347500
 C                     3.65662021    -4.49794864    -0.52780053
 H                     5.12189071    -3.84671207    -1.95313307
 H                     2.00768085    -4.90112887     0.78267906
 H                     4.23669616    -5.35202739    -0.19987411
 C                     1.11609066    -1.22615981    -3.25795852
 H                     2.01989368    -1.08831794    -3.85618063
 H                     0.68588909    -2.20240141    -3.49039563
 H                     0.41533550    -0.44438861    -3.53009837

 ==============================================================================
                                internuclear distances
 ------------------------------------------------------------------------------
       center one      |      center two      | atomic units |  angstroms
 ------------------------------------------------------------------------------
    2 O                |   1 C                |     2.33602  |     1.23617
    3 Ni               |   1 C                |     3.60296  |     1.90660
    4 C                |   3 Ni               |     3.50777  |     1.85623
    5 N                |   4 C                |     2.54490  |     1.34671
    6 N                |   4 C                |     2.52736  |     1.33742
    7 C                |   5 N                |     2.75876  |     1.45987
    8 C                |   5 N                |     2.69483  |     1.42604
    9 C                |   6 N                |     2.77020  |     1.46593
    9 C                |   7 C                |     2.89892  |     1.53404
   10 C                |   6 N                |     2.70259  |     1.43015
   11 H                |   7 C                |     2.06164  |     1.09097
   12 H                |   7 C                |     2.06692  |     1.09377
   13 C                |   8 C                |     2.64499  |     1.39967
   14 C                |   8 C                |     2.64579  |     1.40009
   15 H                |   9 C                |     2.06563  |     1.09309
   16 H                |   9 C                |     2.06025  |     1.09024
   17 C                |  10 C                |     2.64166  |     1.39791
   18 C                |  10 C                |     2.64280  |     1.39851
   19 C                |  13 C                |     2.62937  |     1.39140
   20 C                |  13 C                |     2.86472  |     1.51594
   21 C                |  14 C                |     2.62752  |     1.39042
   22 C                |  14 C                |     2.86481  |     1.51599
   23 C                |  17 C                |     2.62732  |     1.39032
   24 C                |  17 C                |     2.86622  |     1.51674
   25 C                |  18 C                |     2.62622  |     1.38973
   26 C                |  18 C                |     2.86576  |     1.51650
   27 C                |  19 C                |     2.61617  |     1.38442
   27 C                |  21 C                |     2.61867  |     1.38574
   28 H                |  19 C                |     2.04701  |     1.08323
   29 C                |  20 C                |     2.89283  |     1.53082
   30 C                |  20 C                |     2.88887  |     1.52872
   31 H                |  20 C                |     2.06260  |     1.09148
   32 H                |  21 C                |     2.04747  |     1.08347
   33 C                |  22 C                |     2.88837  |     1.52846
   34 C                |  22 C                |     2.89221  |     1.53049
   35 H                |  22 C                |     2.06310  |     1.09174
   36 C                |  23 C                |     2.61561  |     1.38412
   36 C                |  25 C                |     2.61672  |     1.38471
   37 H                |  23 C                |     2.04763  |     1.08356
   38 C                |  24 C                |     2.89347  |     1.53116
   39 C                |  24 C                |     2.88689  |     1.52768
   40 H                |  24 C                |     2.06439  |     1.09243
   41 H                |  25 C                |     2.04583  |     1.08261
   42 C                |  26 C                |     2.88836  |     1.52845
   43 C                |  26 C                |     2.89656  |     1.53279
   44 H                |  26 C                |     2.06428  |     1.09237
   45 H                |  27 C                |     2.04604  |     1.08272
   46 H                |  29 C                |     2.06314  |     1.09177
   47 H                |  29 C                |     2.06356  |     1.09199
   48 H                |  29 C                |     2.06243  |     1.09139
   49 H                |  30 C                |     2.06341  |     1.09191
   50 H                |  30 C                |     2.06310  |     1.09175
   51 H                |  30 C                |     2.06399  |     1.09222
   52 H                |  33 C                |     2.05900  |     1.08957
   53 H                |  33 C                |     2.06400  |     1.09222
   54 H                |  33 C                |     2.06311  |     1.09175
   55 H                |  34 C                |     2.06309  |     1.09174
   56 H                |  34 C                |     2.06243  |     1.09139
   57 H                |  34 C                |     2.06399  |     1.09221
   58 H                |  36 C                |     2.04654  |     1.08298
   59 H                |  38 C                |     2.06363  |     1.09202
   60 H                |  38 C                |     2.06347  |     1.09194
   61 H                |  38 C                |     2.06350  |     1.09196
   62 H                |  39 C                |     2.05888  |     1.08951
   63 H                |  39 C                |     2.06481  |     1.09265
   64 H                |  39 C                |     2.06380  |     1.09212
   65 H                |  42 C                |     2.05716  |     1.08860
   66 H                |  42 C                |     2.06455  |     1.09251
   67 H                |  42 C                |     2.06485  |     1.09267
   68 H                |  43 C                |     2.06330  |     1.09185
   69 H                |  43 C                |     2.06376  |     1.09210
   70 H                |  43 C                |     2.06460  |     1.09254
   71 N                |   1 C                |     3.04572  |     1.61173
   71 N                |   3 Ni               |     3.56265  |     1.88528
   73 C                |  72 C                |     2.62405  |     1.38859
   75 C                |  72 C                |     2.62243  |     1.38773
   75 C                |  74 H                |     2.04598  |     1.08269
   76 C                |  73 C                |     2.62394  |     1.38853
   77 C                |   1 C                |     2.85538  |     1.51100
   77 C                |  76 C                |     2.64184  |     1.39800
   78 C                |  75 C                |     2.61976  |     1.38632
   78 C                |  77 C                |     2.62654  |     1.38990
   79 H                |  76 C                |     2.04518  |     1.08226
   80 H                |  78 C                |     2.03790  |     1.07841
   81 H                |  72 C                |     2.04659  |     1.08301
   82 H                |  73 C                |     2.04881  |     1.08418
   83 C                |  71 N                |     2.73019  |     1.44476
   84 C                |  83 C                |     2.62967  |     1.39156
   85 C                |  83 C                |     2.63391  |     1.39381
   86 C                |  84 C                |     2.62097  |     1.38696
   87 H                |  84 C                |     2.04456  |     1.08194
   88 C                |  85 C                |     2.62868  |     1.39104
   89 H                |  85 C                |     2.05149  |     1.08560
   90 C                |  86 C                |     2.62327  |     1.38817
   90 C                |  88 C                |     2.62238  |     1.38770
   91 H                |  86 C                |     2.04575  |     1.08257
   92 H                |  88 C                |     2.04899  |     1.08428
   93 H                |  90 C                |     2.04708  |     1.08327
   94 C                |  71 N                |     2.78679  |     1.47471
   95 H                |  94 C                |     2.06468  |     1.09258
   96 H                |  94 C                |     2.06331  |     1.09186
   97 H                |  94 C                |     2.04953  |     1.08457
 ------------------------------------------------------------------------------
                         number of included internuclear distances:        102
 ==============================================================================



 ==============================================================================
                                 internuclear angles
 ------------------------------------------------------------------------------
        center 1       |       center 2       |       center 3       |  degrees
 ------------------------------------------------------------------------------
    2 O                |   1 C                |   3 Ni               |   113.47
    2 O                |   1 C                |  71 N                |   115.35
    2 O                |   1 C                |  77 C                |   118.61
    1 C                |  71 N                |   3 Ni               |    65.53
    3 Ni               |   1 C                |  77 C                |   115.10
   71 N                |   1 C                |  77 C                |   118.31
    1 C                |   3 Ni               |   4 C                |   124.97
    3 Ni               |  71 N                |   1 C                |    65.53
    4 C                |   3 Ni               |  71 N                |   174.34
    3 Ni               |   4 C                |   5 N                |   117.38
    3 Ni               |   4 C                |   6 N                |   135.01
    5 N                |   4 C                |   6 N                |   107.19
    4 C                |   5 N                |   7 C                |   114.17
    4 C                |   5 N                |   8 C                |   121.51
    7 C                |   5 N                |   8 C                |   124.05
    4 C                |   6 N                |   9 C                |   113.32
    4 C                |   6 N                |  10 C                |   125.12
    9 C                |   6 N                |  10 C                |   121.32
    5 N                |   7 C                |   9 C                |   101.53
    5 N                |   7 C                |  11 H                |   110.76
    5 N                |   7 C                |  12 H                |   110.69
    9 C                |   7 C                |  11 H                |   112.82
    9 C                |   7 C                |  12 H                |   112.64
   11 H                |   7 C                |  12 H                |   108.32
    5 N                |   8 C                |  13 C                |   118.88
    5 N                |   8 C                |  14 C                |   119.20
   13 C                |   8 C                |  14 C                |   121.92
    6 N                |   9 C                |   7 C                |   102.57
    6 N                |   9 C                |  15 H                |   109.88
    6 N                |   9 C                |  16 H                |   110.72
    7 C                |   9 C                |  15 H                |   112.25
    7 C                |   9 C                |  16 H                |   113.05
   15 H                |   9 C                |  16 H                |   108.28
    6 N                |  10 C                |  17 C                |   118.20
    6 N                |  10 C                |  18 C                |   119.60
   17 C                |  10 C                |  18 C                |   122.19
    8 C                |  13 C                |  19 C                |   118.05
    8 C                |  13 C                |  20 C                |   121.83
   19 C                |  13 C                |  20 C                |   120.11
    8 C                |  14 C                |  21 C                |   118.10
    8 C                |  14 C                |  22 C                |   121.78
   21 C                |  14 C                |  22 C                |   120.12
   10 C                |  17 C                |  23 C                |   118.06
   10 C                |  17 C                |  24 C                |   122.06
   23 C                |  17 C                |  24 C                |   119.87
   10 C                |  18 C                |  25 C                |   117.78
   10 C                |  18 C                |  26 C                |   121.92
   25 C                |  18 C                |  26 C                |   120.24
   13 C                |  19 C                |  27 C                |   120.89
   13 C                |  19 C                |  28 H                |   119.55
   27 C                |  19 C                |  28 H                |   119.56
   13 C                |  20 C                |  29 C                |   110.46
   13 C                |  20 C                |  30 C                |   111.83
   13 C                |  20 C                |  31 H                |   107.76
   29 C                |  20 C                |  30 C                |   111.24
   29 C                |  20 C                |  31 H                |   108.02
   30 C                |  20 C                |  31 H                |   107.34
   14 C                |  21 C                |  27 C                |   120.86
   14 C                |  21 C                |  32 H                |   119.57
   27 C                |  21 C                |  32 H                |   119.57
   14 C                |  22 C                |  33 C                |   111.79
   14 C                |  22 C                |  34 C                |   110.52
   14 C                |  22 C                |  35 H                |   107.96
   33 C                |  22 C                |  34 C                |   110.99
   33 C                |  22 C                |  35 H                |   107.02
   34 C                |  22 C                |  35 H                |   108.40
   17 C                |  23 C                |  36 C                |   120.72
   17 C                |  23 C                |  37 H                |   119.59
   36 C                |  23 C                |  37 H                |   119.69
   17 C                |  24 C                |  38 C                |   110.99
   17 C                |  24 C                |  39 C                |   111.52
   17 C                |  24 C                |  40 H                |   107.92
   38 C                |  24 C                |  39 C                |   111.01
   38 C                |  24 C                |  40 H                |   108.02
   39 C                |  24 C                |  40 H                |   107.20
   18 C                |  25 C                |  36 C                |   121.00
   18 C                |  25 C                |  41 H                |   119.51
   36 C                |  25 C                |  41 H                |   119.49
   18 C                |  26 C                |  42 C                |   112.87
   18 C                |  26 C                |  43 C                |   110.04
   18 C                |  26 C                |  44 H                |   107.74
   42 C                |  26 C                |  43 C                |   110.29
   42 C                |  26 C                |  44 H                |   107.31
   43 C                |  26 C                |  44 H                |   108.44
   19 C                |  27 C                |  21 C                |   120.17
   19 C                |  27 C                |  45 H                |   119.90
   21 C                |  27 C                |  45 H                |   119.93
   20 C                |  29 C                |  46 H                |   111.29
   20 C                |  29 C                |  47 H                |   111.00
   20 C                |  29 C                |  48 H                |   110.53
   46 H                |  29 C                |  47 H                |   107.64
   46 H                |  29 C                |  48 H                |   108.35
   47 H                |  29 C                |  48 H                |   107.91
   20 C                |  30 C                |  49 H                |   110.85
   20 C                |  30 C                |  50 H                |   110.35
   20 C                |  30 C                |  51 H                |   111.34
   49 H                |  30 C                |  50 H                |   108.27
   49 H                |  30 C                |  51 H                |   108.17
   50 H                |  30 C                |  51 H                |   107.75
   22 C                |  33 C                |  52 H                |   110.78
   22 C                |  33 C                |  53 H                |   111.46
   22 C                |  33 C                |  54 H                |   110.30
   52 H                |  33 C                |  53 H                |   108.25
   52 H                |  33 C                |  54 H                |   108.16
   53 H                |  33 C                |  54 H                |   107.78
   22 C                |  34 C                |  55 H                |   111.49
   22 C                |  34 C                |  56 H                |   110.63
   22 C                |  34 C                |  57 H                |   110.68
   55 H                |  34 C                |  56 H                |   108.43
   55 H                |  34 C                |  57 H                |   107.55
   56 H                |  34 C                |  57 H                |   107.93
   23 C                |  36 C                |  25 C                |   120.23
   23 C                |  36 C                |  58 H                |   119.89
   25 C                |  36 C                |  58 H                |   119.88
   24 C                |  38 C                |  59 H                |   111.67
   24 C                |  38 C                |  60 H                |   110.84
   24 C                |  38 C                |  61 H                |   110.53
   59 H                |  38 C                |  60 H                |   107.49
   59 H                |  38 C                |  61 H                |   108.39
   60 H                |  38 C                |  61 H                |   107.76
   24 C                |  39 C                |  62 H                |   111.04
   24 C                |  39 C                |  63 H                |   110.40
   24 C                |  39 C                |  64 H                |   111.14
   62 H                |  39 C                |  63 H                |   108.58
   62 H                |  39 C                |  64 H                |   107.82
   63 H                |  39 C                |  64 H                |   107.75
   26 C                |  42 C                |  65 H                |   110.59
   26 C                |  42 C                |  66 H                |   111.28
   26 C                |  42 C                |  67 H                |   109.74
   65 H                |  42 C                |  66 H                |   108.39
   65 H                |  42 C                |  67 H                |   109.57
   66 H                |  42 C                |  67 H                |   107.19
   26 C                |  43 C                |  68 H                |   112.14
   26 C                |  43 C                |  69 H                |   110.57
   26 C                |  43 C                |  70 H                |   110.19
   68 H                |  43 C                |  69 H                |   108.44
   68 H                |  43 C                |  70 H                |   107.44
   69 H                |  43 C                |  70 H                |   107.93
    1 C                |  71 N                |   3 Ni               |    65.53
    1 C                |  71 N                |  83 C                |   126.80
    1 C                |  71 N                |  94 C                |   110.59
    3 Ni               |  71 N                |  83 C                |   118.97
    3 Ni               |  71 N                |  94 C                |   116.90
   83 C                |  71 N                |  94 C                |   111.30
   73 C                |  72 C                |  75 C                |   119.42
   73 C                |  72 C                |  81 H                |   120.41
   75 C                |  72 C                |  81 H                |   120.17
   72 C                |  73 C                |  76 C                |   120.34
   72 C                |  73 C                |  82 H                |   119.76
   76 C                |  73 C                |  82 H                |   119.90
   72 C                |  75 C                |  74 H                |   120.28
   72 C                |  75 C                |  78 C                |   120.23
   74 H                |  75 C                |  78 C                |   119.48
   73 C                |  76 C                |  77 C                |   120.47
   73 C                |  76 C                |  79 H                |   120.76
   77 C                |  76 C                |  79 H                |   118.76
    1 C                |  77 C                |  76 C                |   117.62
    1 C                |  77 C                |  78 C                |   123.77
   76 C                |  77 C                |  78 C                |   118.60
   75 C                |  78 C                |  77 C                |   120.90
   75 C                |  78 C                |  80 H                |   119.73
   77 C                |  78 C                |  80 H                |   119.37
   71 N                |  83 C                |  84 C                |   119.97
   71 N                |  83 C                |  85 C                |   121.25
   84 C                |  83 C                |  85 C                |   118.72
   83 C                |  84 C                |  86 C                |   120.71
   83 C                |  84 C                |  87 H                |   119.21
   86 C                |  84 C                |  87 H                |   120.07
   83 C                |  85 C                |  88 C                |   120.47
   83 C                |  85 C                |  89 H                |   119.70
   88 C                |  85 C                |  89 H                |   119.83
   84 C                |  86 C                |  90 C                |   120.38
   84 C                |  86 C                |  91 H                |   119.60
   90 C                |  86 C                |  91 H                |   120.02
   85 C                |  88 C                |  90 C                |   120.37
   85 C                |  88 C                |  92 H                |   119.78
   90 C                |  88 C                |  92 H                |   119.84
   86 C                |  90 C                |  88 C                |   119.29
[...]
  ----- ------------  ---------------      ----- ------------  ---------------
   434     12.960746  76 C  s               414    -12.604599  73 C  s         
   452     12.639569  78 C  s               425    -12.420533  75 C  s         
   405     11.795172  72 C  s               443    -10.799634  77 C  s         
   487    -10.175874  85 C  s               478    -10.079761  84 C  s         
   469      9.300401  83 C  s               496      9.052868  86 C  s         

 Vector  526  Occ=0.000000D+00  E= 1.769998D+00
              MO Center= -4.4D-01,  1.3D+00,  1.3D-01, r^2= 1.5D+01
   Bfn.  Coefficient  Atom+Function         Bfn.  Coefficient  Atom+Function  
  ----- ------------  ---------------      ----- ------------  ---------------
   202    -12.879196  23 C  s               220    -12.767992  25 C  s         
   157     12.190371  18 C  s               113    -11.067457  10 C  s         
   148     11.065571  17 C  s               291     11.063731  36 C  s         
   118    -10.969982  10 C  py              154    -10.253925  17 C  pz        
   100     -9.434764   8 C  py              184      8.104273  21 C  s         

 Vector  527  Occ=0.000000D+00  E= 1.791165D+00
              MO Center=  5.6D-01, -1.3D-01, -4.8D-01, r^2= 1.2D+01
   Bfn.  Coefficient  Atom+Function         Bfn.  Coefficient  Atom+Function  
  ----- ------------  ---------------      ----- ------------  ---------------
   434      7.377409  76 C  s               220     -6.673480  25 C  s         
   425     -6.481822  75 C  s               414     -6.172318  73 C  s         
   202     -5.937901  23 C  s               452      5.949672  78 C  s         
   396     -5.753628  71 N  s               405      5.726744  72 C  s         
   113     -5.618346  10 C  s               148      5.635808  17 C  s         

 Vector  528  Occ=0.000000D+00  E= 1.858475D+00
              MO Center=  1.7D-01, -4.9D-01, -8.8D-01, r^2= 9.5D+00
   Bfn.  Coefficient  Atom+Function         Bfn.  Coefficient  Atom+Function  
  ----- ------------  ---------------      ----- ------------  ---------------
    22     24.112355   3 Ni s                23     -9.339066   3 Ni s         
   166      6.775859  19 C  s                56     -5.961071   3 Ni dzz       
    54     -5.577888   3 Ni dyy              51     -5.358805   3 Ni dxx       
   184      5.188188  21 C  s               238     -5.181372  27 C  s         
   135     -4.839652  14 C  s                95      4.617962   8 C  s         

 Vector  529  Occ=0.000000D+00  E= 1.893992D+00
              MO Center= -1.6D+00,  5.2D-01,  5.1D-01, r^2= 5.4D+00
   Bfn.  Coefficient  Atom+Function         Bfn.  Coefficient  Atom+Function  
  ----- ------------  ---------------      ----- ------------  ---------------
    22      6.048849   3 Ni s               100     -5.052553   8 C  py        
    73     -4.471995   5 N  py               86      4.168263   7 C  s         
   104     -4.094836   9 C  s                23     -3.441924   3 Ni s         
    81     -3.444716   6 N  px               68      3.363754   5 N  s         
   118     -2.983797  10 C  py              175     -2.901896  20 C  s         

 Vector  530  Occ=0.000000D+00  E= 1.956829D+00
              MO Center=  1.2D+00,  5.5D-01, -1.6D+00, r^2= 5.3D+00
   Bfn.  Coefficient  Atom+Function         Bfn.  Coefficient  Atom+Function  
  ----- ------------  ---------------      ----- ------------  ---------------
    12      7.390704   2 O  s                22     -6.544785   3 Ni s         
     9      4.681371   1 C  pz              113      4.702252  10 C  s         
    23      4.346101   3 Ni s               157     -4.196430  18 C  s         
   148     -3.903956  17 C  s                 8     -3.362559   1 C  py        
     3     -3.326565   1 C  s               126      3.316753  13 C  s         

 Vector  531  Occ=0.000000D+00  E= 2.863932D+00
              MO Center=  3.2D-02, -4.4D-01, -8.2D-01, r^2= 2.4D+00
   Bfn.  Coefficient  Atom+Function         Bfn.  Coefficient  Atom+Function  
  ----- ------------  ---------------      ----- ------------  ---------------
    22      8.452362   3 Ni s                21      5.825836   3 Ni s         
    23     -5.031850   3 Ni s                20     -3.021709   3 Ni s         
    45     -2.708993   3 Ni dxx              48     -2.702951   3 Ni dyy       
    50     -2.704662   3 Ni dzz             166      1.739163  19 C  s         
   396     -1.499454  71 N  s               487      1.471950  85 C  s         

 Vector  532  Occ=0.000000D+00  E= 3.105141D+00
              MO Center=  2.1D-01, -4.4D-01, -5.9D-01, r^2= 1.2D+00
   Bfn.  Coefficient  Atom+Function         Bfn.  Coefficient  Atom+Function  
  ----- ------------  ---------------      ----- ------------  ---------------
    22      3.526712   3 Ni s                 9      1.248827   1 C  pz        
    12      1.231993   2 O  s                23     -1.204849   3 Ni s         
    21      1.192934   3 Ni s               396     -1.174949  71 N  s         
    32     -1.141930   3 Ni pz                7      1.067172   1 C  px        
    29      1.015319   3 Ni pz              447      0.956549  77 C  px        

 Vector  533  Occ=0.000000D+00  E= 3.316397D+00
              MO Center=  1.4D-01, -3.8D-01, -7.2D-01, r^2= 1.3D+00
   Bfn.  Coefficient  Atom+Function         Bfn.  Coefficient  Atom+Function  
  ----- ------------  ---------------      ----- ------------  ---------------
     3      3.143596   1 C  s               396     -2.110969  71 N  s         
     8     -1.912472   1 C  py              448      1.886573  77 C  py        
   434     -1.683078  76 C  s               452      1.500506  78 C  s         
    31     -1.460932   3 Ni py               28      1.225085   3 Ni py        
    77      1.195942   6 N  s               447      0.974639  77 C  px        

 Vector  534  Occ=0.000000D+00  E= 3.487065D+00
              MO Center=  1.3D-01, -4.0D-01, -7.1D-01, r^2= 1.4D+00
   Bfn.  Coefficient  Atom+Function         Bfn.  Coefficient  Atom+Function  
  ----- ------------  ---------------      ----- ------------  ---------------
     3      3.150476   1 C  s               434     -1.942431  76 C  s         
   448      1.909330  77 C  py                8     -1.508197   1 C  py        
    33     -1.417944   3 Ni px              478     -1.414589  84 C  s         
    64      1.402777   4 C  py               30     -1.393825   3 Ni px        
   473      1.320528  83 C  px               27      1.114159   3 Ni px        

 Vector  535  Occ=0.000000D+00  E= 4.768101D+00
              MO Center=  6.7D-02, -4.4D-01, -6.9D-01, r^2= 5.9D-01
   Bfn.  Coefficient  Atom+Function         Bfn.  Coefficient  Atom+Function  
  ----- ------------  ---------------      ----- ------------  ---------------
    49      1.651744   3 Ni dyz              43     -1.344469   3 Ni dyz       
    46      1.160774   3 Ni dxy              40     -0.945648   3 Ni dxy       
    55     -0.819710   3 Ni dyz               3      0.662932   1 C  s         
    22     -0.587762   3 Ni s                52     -0.539625   3 Ni dxy       
    95     -0.521112   8 C  s                 9      0.497508   1 C  pz        

 Vector  536  Occ=0.000000D+00  E= 4.808441D+00
              MO Center=  6.7D-02, -4.4D-01, -7.0D-01, r^2= 6.4D-01
   Bfn.  Coefficient  Atom+Function         Bfn.  Coefficient  Atom+Function  
  ----- ------------  ---------------      ----- ------------  ---------------
    95     -1.108661   8 C  s                47      1.021607   3 Ni dxz       
    48     -1.002735   3 Ni dyy              41     -0.822457   3 Ni dxz       
    12      0.764695   2 O  s               135      0.754884  14 C  s         
    42      0.741163   3 Ni dyy              45      0.718697   3 Ni dxx       
     3     -0.714805   1 C  s                64     -0.664117   4 C  py        

 Vector  537  Occ=0.000000D+00  E= 4.837249D+00
              MO Center=  6.0D-02, -4.4D-01, -7.1D-01, r^2= 6.4D-01
   Bfn.  Coefficient  Atom+Function         Bfn.  Coefficient  Atom+Function  
  ----- ------------  ---------------      ----- ------------  ---------------
    22      1.745647   3 Ni s                 3     -1.111315   1 C  s         
    56     -1.113011   3 Ni dzz              50      0.985520   3 Ni dzz       
    44     -0.944972   3 Ni dzz              45     -0.898659   3 Ni dxx       
    77      0.769213   6 N  s                64     -0.723673   4 C  py        
    48     -0.702173   3 Ni dyy              33      0.672656   3 Ni px        

 Vector  538  Occ=0.000000D+00  E= 4.966367D+00
              MO Center=  4.5D-02, -4.4D-01, -6.9D-01, r^2= 6.9D-01
   Bfn.  Coefficient  Atom+Function         Bfn.  Coefficient  Atom+Function  
  ----- ------------  ---------------      ----- ------------  ---------------
    22      1.870380   3 Ni s                46     -1.242459   3 Ni dxy       
    47      1.167126   3 Ni dxz              52      0.993303   3 Ni dxy       
    95     -0.993550   8 C  s                40      0.945255   3 Ni dxy       
    64      0.915754   4 C  py               68      0.890942   5 N  s         
    41     -0.886405   3 Ni dxz              53     -0.887506   3 Ni dxz       

 Vector  539  Occ=0.000000D+00  E= 5.114366D+00
              MO Center=  7.3D-02, -4.5D-01, -7.2D-01, r^2= 7.1D-01
   Bfn.  Coefficient  Atom+Function         Bfn.  Coefficient  Atom+Function  
  ----- ------------  ---------------      ----- ------------  ---------------
    22      2.958621   3 Ni s                53     -1.583533   3 Ni dxz       
    47      1.529850   3 Ni dxz              52     -1.355447   3 Ni dxy       
    59     -1.361339   4 C  s               396     -1.315527  71 N  s         
    33     -1.292441   3 Ni px                3      1.274893   1 C  s         
    46      1.241121   3 Ni dxy              41     -1.108084   3 Ni dxz       

 Vector  540  Occ=0.000000D+00  E= 1.023611D+01
              MO Center=  7.2D-02, -4.4D-01, -7.1D-01, r^2= 6.1D-01
   Bfn.  Coefficient  Atom+Function         Bfn.  Coefficient  Atom+Function  
  ----- ------------  ---------------      ----- ------------  ---------------
    21     27.629230   3 Ni s                20    -17.412521   3 Ni s         
    45     -7.521872   3 Ni dxx              48     -7.473427   3 Ni dyy       
    50     -7.460980   3 Ni dzz              22      3.888734   3 Ni s         
    23     -2.100429   3 Ni s                19      1.506528   3 Ni s         
    56     -0.617411   3 Ni dzz              54     -0.601749   3 Ni dyy       

 Vector  541  Occ=0.000000D+00  E= 4.994139D+01
              MO Center=  6.6D-02, -4.3D-01, -7.1D-01, r^2= 1.1D-01
   Bfn.  Coefficient  Atom+Function         Bfn.  Coefficient  Atom+Function  
  ----- ------------  ---------------      ----- ------------  ---------------
    20     21.380378   3 Ni s                21    -20.655786   3 Ni s         
    45      5.139915   3 Ni dxx              48      5.130915   3 Ni dyy       
    50      5.126650   3 Ni dzz              19     -4.349397   3 Ni s         
    39     -2.734706   3 Ni dxx              42     -2.731901   3 Ni dyy       
    44     -2.730415   3 Ni dzz              22     -1.824488   3 Ni s         

 Vector  542  Occ=0.000000D+00  E= 1.174468D+02
              MO Center=  6.6D-02, -4.3D-01, -7.1D-01, r^2= 2.9D-02
   Bfn.  Coefficient  Atom+Function         Bfn.  Coefficient  Atom+Function  
  ----- ------------  ---------------      ----- ------------  ---------------
    26      0.885732   3 Ni pz               24      0.496081   3 Ni px        
    29     -0.334829   3 Ni pz               25     -0.321301   3 Ni py        
    27     -0.187378   3 Ni px               32      0.172933   3 Ni pz        
    28      0.121589   3 Ni py               22     -0.113174   3 Ni s         
    30      0.096722   3 Ni px                9     -0.072961   1 C  pz        

 Vector  543  Occ=0.000000D+00  E= 1.175789D+02
              MO Center=  6.6D-02, -4.3D-01, -7.1D-01, r^2= 3.0D-02
   Bfn.  Coefficient  Atom+Function         Bfn.  Coefficient  Atom+Function  
  ----- ------------  ---------------      ----- ------------  ---------------
    25      1.015926   3 Ni py               28     -0.391180   3 Ni py        
    26      0.280342   3 Ni pz                3     -0.265828   1 C  s         
    31      0.213980   3 Ni py                8      0.172023   1 C  py        
   448     -0.168051  77 C  py               24      0.157386   3 Ni px        
   396      0.158146  71 N  s               434      0.149217  76 C  s         

 Vector  544  Occ=0.000000D+00  E= 1.176755D+02
              MO Center=  6.6D-02, -4.3D-01, -7.1D-01, r^2= 3.1D-02
   Bfn.  Coefficient  Atom+Function         Bfn.  Coefficient  Atom+Function  
  ----- ------------  ---------------      ----- ------------  ---------------
    24      0.930183   3 Ni px               26     -0.521102   3 Ni pz        
    27     -0.363488   3 Ni px                3     -0.243880   1 C  s         
    30      0.208046   3 Ni px               29      0.203686   3 Ni pz        
   448     -0.171647  77 C  py              434      0.170583  76 C  s         
     8      0.139132   1 C  py               64     -0.123431   4 C  py        

 Vector  545  Occ=0.000000D+00  E= 6.767003D+02
              MO Center=  6.5D-02, -4.3D-01, -7.1D-01, r^2= 2.3D-02
   Bfn.  Coefficient  Atom+Function         Bfn.  Coefficient  Atom+Function  
  ----- ------------  ---------------      ----- ------------  ---------------
    20     28.888465   3 Ni s                21    -15.361542   3 Ni s         
    39     -7.285485   3 Ni dxx              42     -7.286722   3 Ni dyy       
    44     -7.286734   3 Ni dzz              19     -4.277055   3 Ni s         
    45      3.413664   3 Ni dxx              48      3.417964   3 Ni dyy       
    50      3.417948   3 Ni dzz              51      0.136029   3 Ni dxx       


 center of mass
 --------------
 x =   0.06079299 y =  -0.01805711 z =  -0.03271062

 moments of inertia (a.u.)
 ------------------
       24461.328412769330           0.000000000003           0.000000000002
           0.000000000003       21242.542012661223           0.000000000001
           0.000000000002           0.000000000001       29384.052663079605

     Multipole analysis of the density
     ---------------------------------

     L   x y z        total         alpha         beta         nuclear
     -   - - -        -----         -----         ----         -------
     0   0 0 0      0.000000   -172.000000   -172.000000    344.000000

     1   1 0 0     -1.509065     -0.137782     -0.137782     -1.233501
     1   0 1 0     -0.795198     -4.476622     -4.476622      8.158047
     1   0 0 1      1.339580     -6.005961     -6.005961     13.351501

     2   2 0 0   -202.737866  -3738.103002  -3738.103002   7273.468138
     2   1 1 0     -1.968373     -3.059140     -3.059140      4.149908
     2   1 0 1      1.652529    -47.437346    -47.437346     96.527220
     2   0 2 0   -203.456709  -4598.096321  -4598.096321   8992.735934
     2   0 1 1      2.692150      3.931659      3.931659     -5.171169
     2   0 0 2   -207.475664  -2473.931643  -2473.931643   4740.387623


 Task  times  cpu:     4469.2s     wall:     4469.2s


                                NWChem Input Module
                                -------------------


 Summary of allocated global arrays
-----------------------------------
  No active global arrays


MA_summarize_allocated_blocks: starting scan ...
heap block 'gridpts', handle 112, address 0x5b74d0cfe660:
	type of elements:		double precision
	number of elements:		203683869
	address of client space:	0x5b74d0cfe6c0
	index for client space:		112297395
	total number of bytes:		1629471056
MA_summarize_allocated_blocks: scan completed: 1 heap block, 0 stack blocks
MA usage statistics:

	allocation statistics:
					      heap	     stack
					      ----	     -----
	current number of blocks	         1	         0
	maximum number of blocks	        34	        58
	current total bytes		1629471056	         0
	maximum total bytes		1648842024	  43585256
	maximum total K-bytes		   1648843	     43586
	maximum total M-bytes		      1649	        44


                                     CITATION
                                     --------
                Please cite the following reference when publishing
                           results obtained with NWChem:

          E. Apra, E. J. Bylaska, W. A. de Jong, N. Govind, K. Kowalski,
       T. P. Straatsma, M. Valiev, H. J. J. van Dam, Y. Alexeev, J. Anchell,
       V. Anisimov, F. W. Aquino, R. Atta-Fynn, J. Autschbach, N. P. Bauman,
     J. C. Becca, D. E. Bernholdt, K. Bhaskaran-Nair, S. Bogatko, P. Borowski,
         J. Boschen, J. Brabec, A. Bruner, E. Cauet, Y. Chen, G. N. Chuev,
      C. J. Cramer, J. Daily, M. J. O. Deegan, T. H. Dunning Jr., M. Dupuis,
   K. G. Dyall, G. I. Fann, S. A. Fischer, A. Fonari, H. Fruchtl, L. Gagliardi,
      J. Garza, N. Gawande, S. Ghosh, K. Glaesemann, A. W. Gotz, J. Hammond,
       V. Helms, E. D. Hermes, K. Hirao, S. Hirata, M. Jacquelin, L. Jensen,
   B. G. Johnson, H. Jonsson, R. A. Kendall, M. Klemm, R. Kobayashi, V. Konkov,
      S. Krishnamoorthy, M. Krishnan, Z. Lin, R. D. Lins, R. J. Littlefield,
      A. J. Logsdail, K. Lopata, W. Ma, A. V. Marenich, J. Martin del Campo,
   D. Mejia-Rodriguez, J. E. Moore, J. M. Mullin, T. Nakajima, D. R. Nascimento,
    J. A. Nichols, P. J. Nichols, J. Nieplocha, A. Otero-de-la-Roza, B. Palmer,
    A. Panyala, T. Pirojsirikul, B. Peng, R. Peverati, J. Pittner, L. Pollack,
   R. M. Richard, P. Sadayappan, G. C. Schatz, W. A. Shelton, D. W. Silverstein,
   D. M. A. Smith, T. A. Soares, D. Song, M. Swart, H. L. Taylor, G. S. Thomas,
            V. Tipparaju, D. G. Truhlar, K. Tsemekhman, T. Van Voorhis,
      A. Vazquez-Mayagoitia, P. Verma, O. Villa, A. Vishnu, K. D. Vogiatzis,
        D. Wang, J. H. Weare, M. J. Williamson, T. L. Windus, K. Wolinski,
        A. T. Wong, Q. Wu, C. Yang, Q. Yu, M. Zacharias, Z. Zhang, Y. Zhao,
                                and R. J. Harrison
                        "NWChem: Past, present, and future
                         J. Chem. Phys. 152, 184102 (2020)
                               doi:10.1063/5.0004997

                                      AUTHORS
                                      -------
  E. Apra, E. J. Bylaska, N. Govind, K. Kowalski, M. Valiev, D. Mejia-Rodriguez,
       A. Kunitsa, N. P. Bauman, A. Panyala, W. A. de Jong, T. P. Straatsma,
   H. J. J. van Dam, D. Wang, T. L. Windus, J. Hammond, J. Autschbach, A. Woods,
    K. Bhaskaran-Nair, J. Brabec, K. Lopata, S. A. Fischer, S. Krishnamoorthy,
     M. Jacquelin, W. Ma, M. Klemm, O. Villa, Y. Chen, V. Anisimov, F. Aquino,
     S. Hirata, M. T. Hackler, E. Hermes, L. Jensen, J. E. Moore, J. C. Becca,
      V. Konjkov, T. Risthaus, M. Malagoli, A. Marenich, A. Otero-de-la-Roza,
        J. Mullin, P. Nichols, R. Peverati, J. Pittner, Y. Zhao, P.-D. Fan,
        A. Fonari, M. J. Williamson, R. J. Harrison, J. R. Rehr, M. Dupuis,
     D. Silverstein, D. M. A. Smith, J. Nieplocha, V. Tipparaju, M. Krishnan,
     B. E. Van Kuiken, A. Vazquez-Mayagoitia, M. Swart, Q. Wu, T. Van Voorhis,
     A. A. Auer, M. Nooijen, L. D. Crosby, E. Brown, G. Cisneros, G. I. Fann,
   H. Fruchtl, J. Garza, K. Hirao, R. A. Kendall, J. A. Nichols, K. Tsemekhman,
    K. Wolinski, J. Anchell, D. E. Bernholdt, P. Borowski, T. Clark, D. Clerc,
   H. Dachsel, M. J. O. Deegan, K. Dyall, D. Elwood, E. Glendening, M. Gutowski,
   A. C. Hess, J. Jaffe, B. G. Johnson, J. Ju, R. Kobayashi, R. Kutteh, Z. Lin,
   R. Littlefield, X. Long, B. Meng, T. Nakajima, S. Niu, L. Pollack, M. Rosing,
   K. Glaesemann, G. Sandrone, M. Stave, H. Taylor, G. Thomas, J. H. van Lenthe,
                               A. T. Wong, Z. Zhang.

 Total times  cpu:     4469.8s     wall:     4469.8s
