 argument  1 = nwchem.in
  NWChem w/ OpenMP: maximum threads =    1
                                         
                                         


             Northwest Computational Chemistry Package (NWChem) 7.2.3
             --------------------------------------------------------


                    Environmental Molecular Sciences Laboratory
                       Pacific Northwest National Laboratory
                                Richland, WA 99352

                              Copyright (c) 1994-2022
                       Pacific Northwest National Laboratory
                            Battelle Memorial Institute

             NWChem is an open-source computational chemistry package
                        distributed under the terms of the
                      Educational Community License (ECL) 2.0
             A copy of the license is included with this distribution
                              in the LICENSE.TXT file

                                  ACKNOWLEDGMENT
                                  --------------

            This software and its documentation were developed at the
            EMSL at Pacific Northwest National Laboratory, a multiprogram
            national laboratory, operated for the U.S. Department of Energy
            by Battelle under Contract Number DE-AC05-76RL01830. Support
            for this work was provided by the Department of Energy Office
            of Biological and Environmental Research, Office of Basic
            Energy Sciences, and the Office of Advanced Scientific Computing.


           Job information
           ---------------

    hostname        = a492250e7a90
    program         = nwchem
    date            = Sun Jun 29 18:06:12 2025

    compiled        = Fri_May_02_22:05:35_2025
    source          = /opt/nwchem
    nwchem branch   = 7.2.3
    nwchem revision = N/A
    ga revision     = 5.9.1
    use scalapack   = T
    input           = nwchem.in
    prefix          = ni_singlepoint.
    data base       = ./ni_singlepoint.db
    status          = startup
    nproc           =        5
    time left       =     -1s



           Memory information
           ------------------

    heap     =    509724440 doubles =     3888.9 Mbytes
    stack    =    509724441 doubles =     3888.9 Mbytes
    global   =    291271111 doubles =     2222.2 Mbytes (distinct from heap & stack)
    total    =   1310719992 doubles =    10000.0 Mbytes
    verify   = yes
    hardfail = no 


           Directory information
           ---------------------

  0 permanent = .
  0 scratch   = .




                                NWChem Input Module
                                -------------------


                          Ni complex single-point energy
                          ------------------------------

 Scaling coordinates for geometry "geometry" by  1.889725989
 (inverse scale =  0.529177249)

 C1  symmetry detected

          ------
          auto-z
          ------
  no constraints, skipping    0.0000000000000000     
  no constraints, skipping    0.0000000000000000     


                             Geometry "geometry" -> ""
                             -------------------------

 Output coordinates in angstroms (scale by  1.889725989 to convert to a.u.)

  No.       Tag          Charge          X              Y              Z
 ---- ---------------- ---------- -------------- -------------- --------------
    1 C                    6.0000     1.79002293     0.53718751    -1.55035979
    2 O                    8.0000     1.46745256     1.26558558    -2.49723637
    3 Ni                  28.0000     0.21520510    -0.35174987    -0.59851126
    4 C                    6.0000    -1.33169762     0.18296186     0.29651775
    5 N                    7.0000    -2.21515015    -0.72173988     0.77656141
    6 N                    7.0000    -1.86661114     1.39453375     0.52415960
    7 C                    6.0000    -3.35499309    -0.12703154     1.47119446
    8 C                    6.0000    -1.93461830    -2.11906432     0.78599725
    9 C                    6.0000    -3.22858470     1.34176903     1.05936261
   10 C                    6.0000    -1.27323155     2.62467191     0.10672250
   11 H                    1.0000    -4.29332981    -0.57991958     1.14775949
   12 H                    1.0000    -3.26366154    -0.26656742     2.55378511
   13 C                    6.0000    -2.42322710    -2.91089227    -0.25815150
   14 C                    6.0000    -1.16244765    -2.65730539     1.82096110
   15 H                    1.0000    -3.94931150     1.61557868     0.28280704
   16 H                    1.0000    -3.34638173     2.03326901     1.89440977
   17 C                    6.0000    -0.59236598     3.38751073     1.05912785
   18 C                    6.0000    -1.40386694     3.03900054    -1.22277943
   19 C                    6.0000    -2.07608731    -4.25748755    -0.27893907
   20 C                    6.0000    -3.30436365    -2.33582558    -1.34889785
   21 C                    6.0000    -0.84408041    -4.01029685     1.76616133
   22 C                    6.0000    -0.68901334    -1.81475982     2.98890420
   23 C                    6.0000     0.00549442     4.57204967     0.64429097
   24 C                    6.0000    -0.48588486     2.95151214     2.50726355
   25 C                    6.0000    -0.78878553     4.22867938    -1.59500093
   26 C                    6.0000    -2.24205239     2.26748934    -2.22381322
   27 C                    6.0000    -1.28471130    -4.80246734     0.71848177
   28 H                    1.0000    -2.42572988    -4.88730717    -1.08819449
   29 C                    6.0000    -4.65890331    -3.04613275    -1.39203089
   30 C                    6.0000    -2.60754445    -2.38390202    -2.70869377
   31 H                    1.0000    -3.48179141    -1.28508015    -1.11228611
   32 H                    1.0000    -0.23976600    -4.44920699     2.55129718
   33 C                    6.0000     0.83573018    -1.79160986     3.08680247
   34 C                    6.0000    -1.32301964    -2.30429149     4.29360909
   35 H                    1.0000    -1.01300136    -0.78659756     2.81754797
   36 C                    6.0000    -0.08377412     4.98530829    -0.67376849
   37 H                    1.0000     0.55564414     5.17254047     1.35902194
   38 C                    6.0000    -1.07948035     3.99786471     3.45231232
   39 C                    6.0000     0.96254453     2.63284023     2.87138946
   40 H                    1.0000    -1.05994392     2.02968341     2.62334107
   41 H                    1.0000    -0.85835170     4.56607123    -2.62137542
   42 C                    6.0000    -1.52587561     2.05439954    -3.55673064
   43 C                    6.0000    -3.57945567     2.98325168    -2.44422324
   44 H                    1.0000    -2.44360927     1.28054956    -1.80125714
   45 H                    1.0000    -1.01790069    -5.85139357     0.68388895
   46 H                    1.0000    -5.15641873    -3.01024752    -0.42103301
   47 H                    1.0000    -4.54594902    -4.09644126    -1.66798488
   48 H                    1.0000    -5.31180776    -2.57709295    -2.13023594
   49 H                    1.0000    -1.67080372    -1.82470952    -2.67794906
   50 H                    1.0000    -3.24503463    -1.94964776    -3.48160025
   51 H                    1.0000    -2.38315253    -3.41324161    -2.99850562
   52 H                    1.0000     1.26919569    -1.38790435     2.17051077
   53 H                    1.0000     1.23938013    -2.79424438     3.24703032
   54 H                    1.0000     1.15368014    -1.16473433     3.92257697
   55 H                    1.0000    -2.41266054    -2.31789042     4.22533716
   56 H                    1.0000    -1.03821223    -1.65788700     5.12566384
   57 H                    1.0000    -0.99501762    -3.31873904     4.53042836
   58 H                    1.0000     0.39514507     5.90545375    -0.98497536
   59 H                    1.0000    -2.12023461     4.21607419     3.20471231
   60 H                    1.0000    -0.52345488     4.93590933     3.39971412
   61 H                    1.0000    -1.03776475     3.64551862     4.48491249
   62 H                    1.0000     1.37105594     1.87369088     2.20403606
   63 H                    1.0000     1.03158417     2.26906140     3.89957820
   64 H                    1.0000     1.59154047     3.52164946     2.78614948
   65 H                    1.0000    -0.54116881     1.61453750    -3.40473352
   66 H                    1.0000    -1.39648659     2.99844353    -4.09146996
   67 H                    1.0000    -2.12275265     1.40010888    -4.19676603
   68 H                    1.0000    -4.11774351     3.14313807    -1.50772361
   69 H                    1.0000    -4.21837602     2.40599453    -3.11590334
   70 H                    1.0000    -3.41317169     3.96323640    -2.89774383
   71 N                    7.0000     1.67461786    -0.90808388    -1.72155472
   72 C                    6.0000     4.21524414     2.40222322     1.47996187
   73 C                    6.0000     3.70338398     3.10591624     0.39918382
   74 H                    1.0000     4.29590069     0.49615312     2.46318415
   75 C                    6.0000     3.91648399     1.05397968     1.61591227
   76 C                    6.0000     2.92281912     2.46215326    -0.54655941
   77 C                    6.0000     2.63156808     1.10126677    -0.43101039
   78 C                    6.0000     3.12414062     0.40865821     0.67784031
   79 H                    1.0000     2.52410028     2.99418017    -1.39923357
   80 H                    1.0000     2.90135710    -0.63708679     0.82414584
   81 H                    1.0000     4.83397680     2.90135393     2.21506203
   82 H                    1.0000     3.91764560     4.16157913     0.28552419
   83 C                    6.0000     2.67071539    -1.82943213    -1.23441393
   84 C                    6.0000     3.99502776    -1.68079878    -1.62037221
   85 C                    6.0000     2.28467348    -2.89443294    -0.43434396
   86 C                    6.0000     4.94484809    -2.58909504    -1.17822956
   87 H                    1.0000     4.27542594    -0.84298742    -2.24763655
   88 C                    6.0000     3.23806875    -3.80369575     0.00174841
   89 H                    1.0000     1.24213195    -2.98833765    -0.14652029
   90 C                    6.0000     4.56864051    -3.65008584    -0.36529348
   91 H                    1.0000     5.98039364    -2.46767360    -1.46846194
   92 H                    1.0000     2.94027267    -4.63135369     0.63316219
   93 H                    1.0000     5.31163248    -4.35785250    -0.02133775
   94 C                    6.0000     1.22559493    -1.31075652    -3.06986157
   95 H                    1.0000     2.05028682    -1.22482878    -3.78197174
   96 H                    1.0000     0.89075424    -2.34577130    -3.01934599
   97 H                    1.0000     0.41490989    -0.66567034    -3.39093141

      Atomic Mass 
      ----------- 

      C                 12.000000
      O                 15.994910
      Ni                57.935300
      N                 14.003070
      H                  1.007825


 Effective nuclear repulsion energy (a.u.)    7253.5010437592

            Nuclear Dipole moment (a.u.) 
            ----------------------------
        X                 Y               Z
 ---------------- ---------------- ----------------
    -0.0000000000    -0.0000000000     0.0000000000



                                Z-matrix (autoz)
                                -------- 

 Units are Angstrom for bonds and degrees for angles

      Type          Name      I     J     K     L     M      Value
      ----------- --------  ----- ----- ----- ----- ----- ----------
    1 Stretch                  1     2                       1.23741
    2 Stretch                  1     3                       2.04359
    3 Stretch                  1    71                       1.45994
    4 Stretch                  1    77                       1.50974
    5 Stretch                  3     4                       1.86545
    6 Stretch                  3    71                       1.92370
    7 Stretch                  4     5                       1.35256
    8 Stretch                  4     6                       1.34382
    9 Stretch                  5     7                       1.46131
   10 Stretch                  5     8                       1.42524
   11 Stretch                  6     9                       1.46431
   12 Stretch                  6    10                       1.42814
   13 Stretch                  7     9                       1.53067
   14 Stretch                  7    11                       1.09096
   15 Stretch                  7    12                       1.09536
   16 Stretch                  8    13                       1.39856
   17 Stretch                  8    14                       1.39896
   18 Stretch                  9    15                       1.09428
   19 Stretch                  9    16                       1.09057
   20 Stretch                 10    17                       1.39735
   21 Stretch                 10    18                       1.39868
   22 Stretch                 13    19                       1.39078
   23 Stretch                 13    20                       1.51553
   24 Stretch                 14    21                       1.39102
   25 Stretch                 14    22                       1.51595
   26 Stretch                 17    23                       1.39020
   27 Stretch                 17    24                       1.51609
   28 Stretch                 18    25                       1.39004
   29 Stretch                 18    26                       1.51653
   30 Stretch                 19    27                       1.38496
   31 Stretch                 19    28                       1.08343
   32 Stretch                 20    29                       1.53009
   33 Stretch                 20    30                       1.52870
   34 Stretch                 20    31                       1.09157
   35 Stretch                 21    27                       1.38540
   36 Stretch                 21    32                       1.08364
   37 Stretch                 22    33                       1.52806
   38 Stretch                 22    34                       1.53097
   39 Stretch                 22    35                       1.09154
   40 Stretch                 23    36                       1.38421
   41 Stretch                 23    37                       1.08356
   42 Stretch                 24    38                       1.52981
   43 Stretch                 24    39                       1.52712
   44 Stretch                 24    40                       1.09215
   45 Stretch                 25    36                       1.38499
   46 Stretch                 25    41                       1.08264
   47 Stretch                 26    42                       1.52807
   48 Stretch                 26    43                       1.53282
   49 Stretch                 26    44                       1.09235
   50 Stretch                 27    45                       1.08288
   51 Stretch                 29    46                       1.09163
   52 Stretch                 29    47                       1.09181
   53 Stretch                 29    48                       1.09143
   54 Stretch                 30    49                       1.09139
   55 Stretch                 30    50                       1.09195
   56 Stretch                 30    51                       1.09265
   57 Stretch                 33    52                       1.09108
   58 Stretch                 33    53                       1.09265
   59 Stretch                 33    54                       1.09206
   60 Stretch                 34    55                       1.09186
   61 Stretch                 34    56                       1.09145
   62 Stretch                 34    57                       1.09214
   63 Stretch                 36    58                       1.08300
   64 Stretch                 38    59                       1.09183
   65 Stretch                 38    60                       1.09172
   66 Stretch                 38    61                       1.09186
   67 Stretch                 39    62                       1.09021
   68 Stretch                 39    63                       1.09283
   69 Stretch                 39    64                       1.09219
   70 Stretch                 42    65                       1.08914
   71 Stretch                 42    66                       1.09266
   72 Stretch                 42    67                       1.09270
   73 Stretch                 43    68                       1.09195
   74 Stretch                 43    69                       1.09206
   75 Stretch                 43    70                       1.09257
   76 Stretch                 71    83                       1.44167
   77 Stretch                 71    94                       1.47706
   78 Stretch                 72    73                       1.38754
   79 Stretch                 72    75                       1.38762
   80 Stretch                 72    81                       1.08274
   81 Stretch                 73    76                       1.38497
   82 Stretch                 73    82                       1.08317
   83 Stretch                 74    75                       1.08305
   84 Stretch                 75    78                       1.38717
   85 Stretch                 76    77                       1.39649
   86 Stretch                 76    79                       1.08124
   87 Stretch                 77    78                       1.39710
   88 Stretch                 78    80                       1.07918
   89 Stretch                 83    84                       1.38739
   90 Stretch                 83    85                       1.38686
   91 Stretch                 84    86                       1.38660
   92 Stretch                 84    87                       1.08352
   93 Stretch                 85    88                       1.38777
   94 Stretch                 85    89                       1.08561
   95 Stretch                 86    90                       1.38856
   96 Stretch                 86    91                       1.08228
   97 Stretch                 88    90                       1.38879
   98 Stretch                 88    92                       1.08277
   99 Stretch                 90    93                       1.08226
  100 Stretch                 94    95                       1.09298
  101 Stretch                 94    96                       1.08900
  102 Stretch                 94    97                       1.08463
  103 Bend                     1     3     4               137.54523
  104 Bend                     1     3    71                43.05151
  105 Bend                     1    71     3                72.85562
  106 Bend                     1    71    83               122.57640
  107 Bend                     1    71    94               113.63750
  108 Bend                     1    77    76               114.77183
  109 Bend                     1    77    78               126.85193
  110 Bend                     2     1     3               114.30420
  111 Bend                     2     1    71               118.18986
  112 Bend                     2     1    77               119.51885
  113 Bend                     3     1    71                64.09287
  114 Bend                     3     1    77               104.28454
  115 Bend                     3     4     5               121.34517
  116 Bend                     3     4     6               132.05070
  117 Bend                     3    71    83               120.77956
  118 Bend                     3    71    94               112.40303
  119 Bend                     4     3    71               172.79200
  120 Bend                     4     5     7               113.95235
  121 Bend                     4     5     8               121.97617
  122 Bend                     4     6     9               113.55709
  123 Bend                     4     6    10               124.17234
  124 Bend                     5     4     6               106.43545
  125 Bend                     5     7     9               101.43219
  126 Bend                     5     7    11               111.16290
  127 Bend                     5     7    12               110.66641
  128 Bend                     5     8    13               118.77527
  129 Bend                     5     8    14               119.38977
  130 Bend                     6     9     7               102.10641
  131 Bend                     6     9    15               110.13347
  132 Bend                     6     9    16               110.94538
  133 Bend                     6    10    17               118.25905
  134 Bend                     6    10    18               119.61621
  135 Bend                     7     5     8               123.32464
  136 Bend                     7     9    15               112.12599
  137 Bend                     7     9    16               113.17289
  138 Bend                     8    13    19               118.17358
  139 Bend                     8    13    20               121.70980
  140 Bend                     8    14    21               118.12564
  141 Bend                     8    14    22               121.90525
  142 Bend                     9     6    10               121.62277
  143 Bend                     9     7    11               112.93039
  144 Bend                     9     7    12               112.41232
  145 Bend                    10    17    23               118.11999
  146 Bend                    10    17    24               121.88778
  147 Bend                    10    18    25               117.82254
  148 Bend                    10    18    26               121.89439
  149 Bend                    11     7    12               108.17047
  150 Bend                    13     8    14               121.82556
  151 Bend                    13    19    27               120.85428
  152 Bend                    13    19    28               119.56875
  153 Bend                    13    20    29               111.02883
  154 Bend                    13    20    30               111.29940
  155 Bend                    13    20    31               107.68320
  156 Bend                    14    21    27               120.87489
  157 Bend                    14    21    32               119.54133
  158 Bend                    14    22    33               111.67884
  159 Bend                    14    22    34               110.45838
  160 Bend                    14    22    35               108.05159
  161 Bend                    15     9    16               108.27491
  162 Bend                    17    10    18               122.11786
  163 Bend                    17    23    36               120.71657
  164 Bend                    17    23    37               119.58538
  165 Bend                    17    24    38               111.47624
  166 Bend                    17    24    39               110.75537
  167 Bend                    17    24    40               107.89877
  168 Bend                    18    25    36               120.97694
  169 Bend                    18    25    41               119.48167
  170 Bend                    18    26    42               112.81066
  171 Bend                    18    26    43               109.85221
  172 Bend                    18    26    44               107.83546
  173 Bend                    19    13    20               120.11635
  174 Bend                    19    27    21               120.08979
  175 Bend                    19    27    45               119.92996
  176 Bend                    20    29    46               111.29263
  177 Bend                    20    29    47               111.23028
  178 Bend                    20    29    48               110.43481
  179 Bend                    20    30    49               110.49130
  180 Bend                    20    30    50               110.54820
  181 Bend                    20    30    51               111.04924
  182 Bend                    21    14    22               119.96457
  183 Bend                    21    27    45               119.97779
  184 Bend                    22    33    52               110.37850
  185 Bend                    22    33    53               111.35312
  186 Bend                    22    33    54               110.38002
  187 Bend                    22    34    55               111.34448
  188 Bend                    22    34    56               110.62422
  189 Bend                    22    34    57               110.94221
  190 Bend                    23    17    24               119.99062
  191 Bend                    23    36    25               120.20498
  192 Bend                    23    36    58               119.91833
  193 Bend                    24    38    59               111.49824
  194 Bend                    24    38    60               111.11917
  195 Bend                    24    38    61               110.40676
  196 Bend                    24    39    62               110.77831
  197 Bend                    24    39    63               110.71502
  198 Bend                    24    39    64               110.96526
  199 Bend                    25    18    26               120.21303
  200 Bend                    25    36    58               119.87608
  201 Bend                    26    42    65               110.99742
  202 Bend                    26    42    66               111.21743
  203 Bend                    26    42    67               109.78061
  204 Bend                    26    43    68               112.03444
  205 Bend                    26    43    69               110.61461
  206 Bend                    26    43    70               110.22674
  207 Bend                    27    19    28               119.57643
  208 Bend                    27    21    32               119.58324
  209 Bend                    29    20    30               111.33702
  210 Bend                    29    20    31               108.00372
  211 Bend                    30    20    31               107.28814
  212 Bend                    33    22    34               111.31337
  213 Bend                    33    22    35               106.97546
  214 Bend                    34    22    35               108.18313
  215 Bend                    36    23    37               119.69510
  216 Bend                    36    25    41               119.54080
  217 Bend                    38    24    39               111.31261
  218 Bend                    38    24    40               107.92071
  219 Bend                    39    24    40               107.28141
  220 Bend                    42    26    43               110.40278
  221 Bend                    42    26    44               107.33246
  222 Bend                    43    26    44               108.45306
  223 Bend                    46    29    47               107.67353
  224 Bend                    46    29    48               108.35225
  225 Bend                    47    29    48               107.71894
  226 Bend                    49    30    50               108.49744
  227 Bend                    49    30    51               108.29368
  228 Bend                    50    30    51               107.86631
  229 Bend                    52    33    53               108.41564
  230 Bend                    52    33    54               108.34006
  231 Bend                    53    33    54               107.87599
  232 Bend                    55    34    56               108.38835
  233 Bend                    55    34    57               107.56022
  234 Bend                    56    34    57               107.84465
  235 Bend                    59    38    60               107.62800
  236 Bend                    59    38    61               108.38384
  237 Bend                    60    38    61               107.66092
  238 Bend                    62    39    63               108.69078
  239 Bend                    62    39    64               107.64369
  240 Bend                    63    39    64               107.93496
  241 Bend                    65    42    66               108.06929
  242 Bend                    65    42    67               109.49836
  243 Bend                    66    42    67               107.17962
  244 Bend                    68    43    69               108.45051
  245 Bend                    68    43    70               107.43932
  246 Bend                    69    43    70               107.93038
  247 Bend                    71     1    77               120.05773
  248 Bend                    71    83    84               119.80527
  249 Bend                    71    83    85               119.56276
  250 Bend                    71    94    95               110.11646
  251 Bend                    71    94    96               108.07317
  252 Bend                    71    94    97               109.59021
  253 Bend                    72    73    76               120.26947
  254 Bend                    72    73    82               120.20107
  255 Bend                    72    75    74               120.10947
  256 Bend                    72    75    78               120.57941
  257 Bend                    73    72    75               119.31739
  258 Bend                    73    72    81               120.38719
  259 Bend                    73    76    77               120.93138
  260 Bend                    73    76    79               121.17311
  261 Bend                    74    75    78               119.30961
  262 Bend                    75    72    81               120.29303
  263 Bend                    75    78    77               120.49659
  264 Bend                    75    78    80               118.49187
  265 Bend                    76    73    82               119.52799
  266 Bend                    76    77    78               118.37548
  267 Bend                    77    76    79               117.89478
  268 Bend                    77    78    80               121.01132
  269 Bend                    83    71    94               110.13689
  270 Bend                    83    84    86               119.66799
  271 Bend                    83    84    87               119.40003
  272 Bend                    83    85    88               119.55082
  273 Bend                    83    85    89               119.12319
  274 Bend                    84    83    85               120.56110
  275 Bend                    84    86    90               120.10698
  276 Bend                    84    86    91               119.76343
  277 Bend                    85    88    90               120.17751
  278 Bend                    85    88    92               119.67831
  279 Bend                    86    84    87               120.91989
  280 Bend                    86    90    88               119.92190
  281 Bend                    86    90    93               119.98418
  282 Bend                    88    85    89               121.31589
  283 Bend                    88    90    93               120.09361
  284 Bend                    90    86    91               120.12957
  285 Bend                    90    88    92               120.14368
  286 Bend                    95    94    96               109.69080
  287 Bend                    95    94    97               108.92551
  288 Bend                    96    94    97               110.43726
  289 Torsion                  1     3     4     5         177.20174
  290 Torsion                  1     3     4     6           2.60938
  291 Torsion                  1     3    71    83         118.17034
  292 Torsion                  1     3    71    94        -109.06729
  293 Torsion                  1    71     3     4          98.62492
  294 Torsion                  1    71    83    84         -55.27589
  295 Torsion                  1    71    83    85         127.76781
  296 Torsion                  1    71    94    95          76.62616
  297 Torsion                  1    71    94    96        -163.57312
  298 Torsion                  1    71    94    97         -43.17467
  299 Torsion                  1    77    76    73        -178.99958
  300 Torsion                  1    77    76    79           0.69226
  301 Torsion                  1    77    78    75         178.40675
  302 Torsion                  1    77    78    80          -1.42196
  303 Torsion                  2     1     3     4         -58.50090
  304 Torsion                  2     1     3    71         110.90909
  305 Torsion                  2     1    71     3        -104.99932
  306 Torsion                  2     1    71    83         138.99831
  307 Torsion                  2     1    71    94           2.47951
  308 Torsion                  2     1    77    76           3.00753
  309 Torsion                  2     1    77    78        -177.31761
  310 Torsion                  3     1    71    83        -116.00237
  311 Torsion                  3     1    71    94         107.47883
  312 Torsion                  3     1    77    76        -126.20717
  313 Torsion                  3     1    77    78          53.46769
  314 Torsion                  3     4     5     7         178.88316
  315 Torsion                  3     4     5     8           8.47804
  316 Torsion                  3     4     6     9         169.20852
  317 Torsion                  3     4     6    10          -1.66837
  318 Torsion                  3    71     1    77          92.05368
  319 Torsion                  3    71    83    84        -143.75229
  320 Torsion                  3    71    83    85          39.29141
  321 Torsion                  3    71    94    95         156.97641
  322 Torsion                  3    71    94    96         -83.22287
  323 Torsion                  3    71    94    97          37.17558
  324 Torsion                  4     3     1    71        -169.40999
  325 Torsion                  4     3     1    77          73.78688
  326 Torsion                  4     3    71    83        -143.20474
  327 Torsion                  4     3    71    94         -10.44236
  328 Torsion                  4     5     7     9          13.29517
  329 Torsion                  4     5     7    11         133.59541
  330 Torsion                  4     5     7    12        -106.17802
  331 Torsion                  4     5     8    13         -96.71981
  332 Torsion                  4     5     8    14          82.18557
  333 Torsion                  4     6     9     7          13.77074
  334 Torsion                  4     6     9    15        -105.49889
  335 Torsion                  4     6     9    16         134.63705
  336 Torsion                  4     6    10    17        -101.69872
  337 Torsion                  4     6    10    18          79.23501
  338 Torsion                  5     4     3    71          86.36322
  339 Torsion                  5     4     6     9          -5.97783
  340 Torsion                  5     4     6    10        -176.85471
  341 Torsion                  5     7     9     6         -14.89804
  342 Torsion                  5     7     9    15         102.95695
  343 Torsion                  5     7     9    16        -134.20632
  344 Torsion                  5     8    13    19         176.26178
  345 Torsion                  5     8    13    20          -3.54766
  346 Torsion                  5     8    14    21        -176.59222
  347 Torsion                  5     8    14    22           4.18289
  348 Torsion                  6     4     3    71         -88.22914
  349 Torsion                  6     4     5     7          -5.30087
  350 Torsion                  6     4     5     8        -175.70599
  351 Torsion                  6     9     7    11        -133.94191
  352 Torsion                  6     9     7    12         103.32406
  353 Torsion                  6    10    17    23         178.81940
  354 Torsion                  6    10    17    24          -0.71959
  355 Torsion                  6    10    18    25        -178.72556
  356 Torsion                  6    10    18    26           4.31339
  357 Torsion                  7     5     8    13          93.78409
  358 Torsion                  7     5     8    14         -87.31053
  359 Torsion                  7     9     6    10        -175.09134
  360 Torsion                  8     5     7     9        -176.44693
  361 Torsion                  8     5     7    11         -56.14668
  362 Torsion                  8     5     7    12          64.07988
  363 Torsion                  8    13    19    27           0.95040
  364 Torsion                  8    13    19    28        -178.78158
  365 Torsion                  8    13    20    29        -120.62831
  366 Torsion                  8    13    20    30         114.74160
  367 Torsion                  8    13    20    31          -2.58618
  368 Torsion                  8    14    21    27          -0.26746
  369 Torsion                  8    14    21    32         179.46427
  370 Torsion                  8    14    22    33        -120.22292
  371 Torsion                  8    14    22    34         115.32180
  372 Torsion                  8    14    22    35          -2.83528
  373 Torsion                  9     6    10    17          88.12901
  374 Torsion                  9     6    10    18         -90.93726
  375 Torsion                 10     6     9    15          65.63903
  376 Torsion                 10     6     9    16         -54.22502
  377 Torsion                 10    17    23    36           0.53656
  378 Torsion                 10    17    23    37        -178.83749
  379 Torsion                 10    17    24    38        -121.42645
  380 Torsion                 10    17    24    39         114.04751
  381 Torsion                 10    17    24    40          -3.09695
  382 Torsion                 10    18    25    36          -0.76039
  383 Torsion                 10    18    25    41         178.95802
  384 Torsion                 10    18    26    42        -133.55100
  385 Torsion                 10    18    26    43         102.81108
  386 Torsion                 10    18    26    44         -15.20273
  387 Torsion                 11     7     9    15         -16.08692
  388 Torsion                 11     7     9    16         106.74982
  389 Torsion                 12     7     9    15        -138.82095
  390 Torsion                 12     7     9    16         -15.98422
  391 Torsion                 13     8    14    21           2.27856
  392 Torsion                 13     8    14    22        -176.94633
  393 Torsion                 13    19    27    21           0.98689
  394 Torsion                 13    19    27    45        -179.58421
  395 Torsion                 13    20    29    46          55.46478
  396 Torsion                 13    20    29    47         -64.59903
  397 Torsion                 13    20    29    48         175.85127
  398 Torsion                 13    20    30    49         -58.80519
  399 Torsion                 13    20    30    50        -178.92363
  400 Torsion                 13    20    30    51          61.38502
  401 Torsion                 14     8    13    19          -2.61572
  402 Torsion                 14     8    13    20         177.57484
  403 Torsion                 14    21    27    19          -1.33863
  404 Torsion                 14    21    27    45         179.23275
  405 Torsion                 14    22    33    52          59.20874
  406 Torsion                 14    22    33    53         -61.25983
  407 Torsion                 14    22    33    54         178.94972
  408 Torsion                 14    22    34    55         -55.52391
  409 Torsion                 14    22    34    56        -176.11796
  410 Torsion                 14    22    34    57          64.23766
  411 Torsion                 17    10    18    25           2.24550
  412 Torsion                 17    10    18    26        -174.71555
  413 Torsion                 17    23    36    25           0.88509
  414 Torsion                 17    23    36    58        -179.39992
  415 Torsion                 17    24    38    59          56.71219
  416 Torsion                 17    24    38    60         -63.35732
  417 Torsion                 17    24    38    61         177.25585
  418 Torsion                 17    24    39    62         -56.39814
  419 Torsion                 17    24    39    63        -177.05745
  420 Torsion                 17    24    39    64          63.11023
  421 Torsion                 18    10    17    23          -2.13902
  422 Torsion                 18    10    17    24         178.32199
  423 Torsion                 18    25    36    23          -0.76913
  424 Torsion                 18    25    36    58         179.51576
  425 Torsion                 18    26    42    65          52.38291
  426 Torsion                 18    26    42    66         -67.97443
  427 Torsion                 18    26    42    67         173.57928
  428 Torsion                 18    26    43    68         -55.36304
  429 Torsion                 18    26    43    69        -176.49592
  430 Torsion                 18    26    43    70          64.21994
  431 Torsion                 19    13    20    29          59.56589
  432 Torsion                 19    13    20    30         -65.06420
  433 Torsion                 19    13    20    31         177.60803
  434 Torsion                 19    27    21    32         178.92975
  435 Torsion                 20    13    19    27        -179.23702
  436 Torsion                 20    13    19    28           1.03101
  437 Torsion                 21    14    22    33          60.56613
  438 Torsion                 21    14    22    34         -63.88915
  439 Torsion                 21    14    22    35         177.95377
  440 Torsion                 21    27    19    28        -179.28115
  441 Torsion                 22    14    21    27         178.97301
  442 Torsion                 22    14    21    32          -1.29526
  443 Torsion                 23    17    24    38          59.04300
  444 Torsion                 23    17    24    39         -65.48304
  445 Torsion                 23    17    24    40         177.37250
  446 Torsion                 23    36    25    41         179.51262
  447 Torsion                 24    17    23    36        -179.91539
  448 Torsion                 24    17    23    37           0.71056
  449 Torsion                 25    18    26    42          49.55919
  450 Torsion                 25    18    26    43         -74.07873
  451 Torsion                 25    18    26    44         167.90746
  452 Torsion                 25    36    23    37        -179.74154
  453 Torsion                 26    18    25    36         176.25394
  454 Torsion                 26    18    25    41          -4.02765
  455 Torsion                 28    19    27    45           0.14774
  456 Torsion                 29    20    30    49         176.73821
  457 Torsion                 29    20    30    50          56.61977
  458 Torsion                 29    20    30    51         -63.07158
  459 Torsion                 30    20    29    46        -179.92640
  460 Torsion                 30    20    29    47          60.00979
  461 Torsion                 30    20    29    48         -59.53991
  462 Torsion                 31    20    29    46         -62.38286
  463 Torsion                 31    20    29    47         177.55333
  464 Torsion                 31    20    29    48          58.00363
  465 Torsion                 31    20    30    49          58.76220
  466 Torsion                 31    20    30    50         -61.35624
  467 Torsion                 31    20    30    51         178.95241
  468 Torsion                 32    21    27    45          -0.49887
  469 Torsion                 33    22    34    55         179.81186
  470 Torsion                 33    22    34    56          59.21780
  471 Torsion                 33    22    34    57         -60.42657
  472 Torsion                 34    22    33    52        -176.81577
  473 Torsion                 34    22    33    53          62.71566
  474 Torsion                 34    22    33    54         -57.07479
  475 Torsion                 35    22    33    52         -58.82542
  476 Torsion                 35    22    33    53        -179.29398
  477 Torsion                 35    22    33    54          60.91557
  478 Torsion                 35    22    34    55          62.55263
  479 Torsion                 35    22    34    56         -58.04143
  480 Torsion                 35    22    34    57        -177.68580
  481 Torsion                 37    23    36    58          -0.02655
  482 Torsion                 38    24    39    62         178.98279
  483 Torsion                 38    24    39    63          58.32349
  484 Torsion                 38    24    39    64         -61.50883
  485 Torsion                 39    24    38    59        -179.07508
  486 Torsion                 39    24    38    60          60.85541
  487 Torsion                 39    24    38    61         -58.53142
  488 Torsion                 40    24    38    59         -61.60415
  489 Torsion                 40    24    38    60         178.32633
  490 Torsion                 40    24    38    61          58.93951
  491 Torsion                 40    24    39    62          61.12498
  492 Torsion                 40    24    39    63         -59.53432
  493 Torsion                 40    24    39    64        -179.36664
  494 Torsion                 41    25    36    58          -0.20249
  495 Torsion                 42    26    43    68         179.60276
  496 Torsion                 42    26    43    69          58.46988
  497 Torsion                 42    26    43    70         -60.81426
  498 Torsion                 43    26    42    65         175.71580
  499 Torsion                 43    26    42    66          55.35846
  500 Torsion                 43    26    42    67         -63.08783
  501 Torsion                 44    26    42    65         -66.25901
  502 Torsion                 44    26    42    66         173.38366
  503 Torsion                 44    26    42    67          54.93736
  504 Torsion                 44    26    43    68          62.26726
  505 Torsion                 44    26    43    69         -58.86562
  506 Torsion                 44    26    43    70        -178.14976
  507 Torsion                 71     1    77    76         165.72832
  508 Torsion                 71     1    77    78         -14.59682
  509 Torsion                 71     3     1    77        -116.80313
  510 Torsion                 71    83    84    86        -178.32192
  511 Torsion                 71    83    84    87           2.93099
  512 Torsion                 71    83    85    88         178.09670
  513 Torsion                 71    83    85    89          -3.04415
  514 Torsion                 72    73    76    77           0.25185
  515 Torsion                 72    73    76    79        -179.42983
  516 Torsion                 72    75    78    77           1.02997
  517 Torsion                 72    75    78    80        -179.13707
  518 Torsion                 73    72    75    74        -179.00428
  519 Torsion                 73    72    75    78           0.54596
  520 Torsion                 73    76    77    78           1.29612
  521 Torsion                 74    75    72    81           0.43535
  522 Torsion                 74    75    78    77        -179.41622
  523 Torsion                 74    75    78    80           0.41674
  524 Torsion                 75    72    73    76          -1.18234
  525 Torsion                 75    72    73    82         179.26060
  526 Torsion                 75    78    77    76          -1.92879
  527 Torsion                 76    73    72    81         179.37857
  528 Torsion                 76    77    78    80         178.24251
  529 Torsion                 77     1    71    83         -23.94869
  530 Torsion                 77     1    71    94        -160.46749
  531 Torsion                 77    76    73    82         179.81188
  532 Torsion                 78    75    72    81         179.98559
  533 Torsion                 78    77    76    79        -179.01204
  534 Torsion                 79    76    73    82           0.13020
  535 Torsion                 81    72    73    82          -0.17849
  536 Torsion                 83    71    94    95         -65.23196
  537 Torsion                 83    71    94    96          54.56876
  538 Torsion                 83    71    94    97         174.96721
  539 Torsion                 83    84    86    90           0.70590
  540 Torsion                 83    84    86    91        -179.25221
  541 Torsion                 83    85    88    90          -0.24230
  542 Torsion                 83    85    88    92         179.49940
  543 Torsion                 84    83    71    94          82.54687
  544 Torsion                 84    83    85    88           1.16386
  545 Torsion                 84    83    85    89        -179.97698
  546 Torsion                 84    86    90    88           0.20420
  547 Torsion                 84    86    90    93         180.00000
  548 Torsion                 85    83    71    94         -94.40943
  549 Torsion                 85    83    84    86          -1.39651
  550 Torsion                 85    83    84    87         179.85641
  551 Torsion                 85    88    90    86          -0.43729
  552 Torsion                 85    88    90    93         179.76715
  553 Torsion                 86    90    88    92         179.82222
  554 Torsion                 87    84    86    90         179.43351
  555 Torsion                 87    84    86    91          -0.52459
  556 Torsion                 88    90    86    91        -179.83785
  557 Torsion                 89    85    88    90        -179.07573
  558 Torsion                 89    85    88    92           0.66597
  559 Torsion                 91    86    90    93          -0.04206
  560 Torsion                 92    88    90    93           0.02665


            XYZ format geometry
            -------------------
    97
 geometry
 C                     1.79002293     0.53718751    -1.55035979
 O                     1.46745256     1.26558558    -2.49723637
 Ni                    0.21520510    -0.35174987    -0.59851126
 C                    -1.33169762     0.18296186     0.29651775
 N                    -2.21515015    -0.72173988     0.77656141
 N                    -1.86661114     1.39453375     0.52415960
 C                    -3.35499309    -0.12703154     1.47119446
 C                    -1.93461830    -2.11906432     0.78599725
 C                    -3.22858470     1.34176903     1.05936261
 C                    -1.27323155     2.62467191     0.10672250
 H                    -4.29332981    -0.57991958     1.14775949
 H                    -3.26366154    -0.26656742     2.55378511
 C                    -2.42322710    -2.91089227    -0.25815150
 C                    -1.16244765    -2.65730539     1.82096110
 H                    -3.94931150     1.61557868     0.28280704
 H                    -3.34638173     2.03326901     1.89440977
 C                    -0.59236598     3.38751073     1.05912785
 C                    -1.40386694     3.03900054    -1.22277943
 C                    -2.07608731    -4.25748755    -0.27893907
 C                    -3.30436365    -2.33582558    -1.34889785
 C                    -0.84408041    -4.01029685     1.76616133
 C                    -0.68901334    -1.81475982     2.98890420
 C                     0.00549442     4.57204967     0.64429097
 C                    -0.48588486     2.95151214     2.50726355
 C                    -0.78878553     4.22867938    -1.59500093
 C                    -2.24205239     2.26748934    -2.22381322
 C                    -1.28471130    -4.80246734     0.71848177
 H                    -2.42572988    -4.88730717    -1.08819449
 C                    -4.65890331    -3.04613275    -1.39203089
 C                    -2.60754445    -2.38390202    -2.70869377
 H                    -3.48179141    -1.28508015    -1.11228611
 H                    -0.23976600    -4.44920699     2.55129718
 C                     0.83573018    -1.79160986     3.08680247
 C                    -1.32301964    -2.30429149     4.29360909
 H                    -1.01300136    -0.78659756     2.81754797
 C                    -0.08377412     4.98530829    -0.67376849
 H                     0.55564414     5.17254047     1.35902194
 C                    -1.07948035     3.99786471     3.45231232
 C                     0.96254453     2.63284023     2.87138946
 H                    -1.05994392     2.02968341     2.62334107
 H                    -0.85835170     4.56607123    -2.62137542
 C                    -1.52587561     2.05439954    -3.55673064
 C                    -3.57945567     2.98325168    -2.44422324
 H                    -2.44360927     1.28054956    -1.80125714
 H                    -1.01790069    -5.85139357     0.68388895
 H                    -5.15641873    -3.01024752    -0.42103301
 H                    -4.54594902    -4.09644126    -1.66798488
 H                    -5.31180776    -2.57709295    -2.13023594
 H                    -1.67080372    -1.82470952    -2.67794906
 H                    -3.24503463    -1.94964776    -3.48160025
 H                    -2.38315253    -3.41324161    -2.99850562
 H                     1.26919569    -1.38790435     2.17051077
 H                     1.23938013    -2.79424438     3.24703032
 H                     1.15368014    -1.16473433     3.92257697
 H                    -2.41266054    -2.31789042     4.22533716
 H                    -1.03821223    -1.65788700     5.12566384
 H                    -0.99501762    -3.31873904     4.53042836
 H                     0.39514507     5.90545375    -0.98497536
 H                    -2.12023461     4.21607419     3.20471231
 H                    -0.52345488     4.93590933     3.39971412
 H                    -1.03776475     3.64551862     4.48491249
 H                     1.37105594     1.87369088     2.20403606
 H                     1.03158417     2.26906140     3.89957820
 H                     1.59154047     3.52164946     2.78614948
 H                    -0.54116881     1.61453750    -3.40473352
 H                    -1.39648659     2.99844353    -4.09146996
 H                    -2.12275265     1.40010888    -4.19676603
 H                    -4.11774351     3.14313807    -1.50772361
 H                    -4.21837602     2.40599453    -3.11590334
 H                    -3.41317169     3.96323640    -2.89774383
 N                     1.67461786    -0.90808388    -1.72155472
 C                     4.21524414     2.40222322     1.47996187
 C                     3.70338398     3.10591624     0.39918382
 H                     4.29590069     0.49615312     2.46318415
 C                     3.91648399     1.05397968     1.61591227
 C                     2.92281912     2.46215326    -0.54655941
 C                     2.63156808     1.10126677    -0.43101039
 C                     3.12414062     0.40865821     0.67784031
 H                     2.52410028     2.99418017    -1.39923357
 H                     2.90135710    -0.63708679     0.82414584
 H                     4.83397680     2.90135393     2.21506203
 H                     3.91764560     4.16157913     0.28552419
 C                     2.67071539    -1.82943213    -1.23441393
 C                     3.99502776    -1.68079878    -1.62037221
 C                     2.28467348    -2.89443294    -0.43434396
 C                     4.94484809    -2.58909504    -1.17822956
 H                     4.27542594    -0.84298742    -2.24763655
 C                     3.23806875    -3.80369575     0.00174841
 H                     1.24213195    -2.98833765    -0.14652029
 C                     4.56864051    -3.65008584    -0.36529348
 H                     5.98039364    -2.46767360    -1.46846194
 H                     2.94027267    -4.63135369     0.63316219
 H                     5.31163248    -4.35785250    -0.02133775
 C                     1.22559493    -1.31075652    -3.06986157
 H                     2.05028682    -1.22482878    -3.78197174
 H                     0.89075424    -2.34577130    -3.01934599
 H                     0.41490989    -0.66567034    -3.39093141

 ==============================================================================
                                internuclear distances
 ------------------------------------------------------------------------------
       center one      |      center two      | atomic units |  angstroms
 ------------------------------------------------------------------------------
    2 O                |   1 C                |     2.33837  |     1.23741
    3 Ni               |   1 C                |     3.86183  |     2.04359
    4 C                |   3 Ni               |     3.52519  |     1.86545
    5 N                |   4 C                |     2.55597  |     1.35256
    6 N                |   4 C                |     2.53946  |     1.34382
    7 C                |   5 N                |     2.76148  |     1.46131
    8 C                |   5 N                |     2.69331  |     1.42524
    9 C                |   6 N                |     2.76714  |     1.46431
    9 C                |   7 C                |     2.89255  |     1.53067
   10 C                |   6 N                |     2.69880  |     1.42814
   11 H                |   7 C                |     2.06162  |     1.09096
   12 H                |   7 C                |     2.06993  |     1.09536
   13 C                |   8 C                |     2.64290  |     1.39856
   14 C                |   8 C                |     2.64366  |     1.39896
   15 H                |   9 C                |     2.06790  |     1.09428
   16 H                |   9 C                |     2.06089  |     1.09057
   17 C                |  10 C                |     2.64060  |     1.39735
   18 C                |  10 C                |     2.64312  |     1.39868
   19 C                |  13 C                |     2.62818  |     1.39078
   20 C                |  13 C                |     2.86394  |     1.51553
   21 C                |  14 C                |     2.62865  |     1.39102
   22 C                |  14 C                |     2.86474  |     1.51595
   23 C                |  17 C                |     2.62710  |     1.39020
   24 C                |  17 C                |     2.86500  |     1.51609
   25 C                |  18 C                |     2.62679  |     1.39004
   26 C                |  18 C                |     2.86582  |     1.51653
   27 C                |  19 C                |     2.61720  |     1.38496
   27 C                |  21 C                |     2.61802  |     1.38540
   28 H                |  19 C                |     2.04738  |     1.08343
   29 C                |  20 C                |     2.89145  |     1.53009
   30 C                |  20 C                |     2.88882  |     1.52870
   31 H                |  20 C                |     2.06277  |     1.09157
   32 H                |  21 C                |     2.04778  |     1.08364
   33 C                |  22 C                |     2.88761  |     1.52806
   34 C                |  22 C                |     2.89311  |     1.53097
   35 H                |  22 C                |     2.06270  |     1.09154
   36 C                |  23 C                |     2.61577  |     1.38421
   36 C                |  25 C                |     2.61725  |     1.38499
   37 H                |  23 C                |     2.04762  |     1.08356
   38 C                |  24 C                |     2.89093  |     1.52981
   39 C                |  24 C                |     2.88583  |     1.52712
   40 H                |  24 C                |     2.06386  |     1.09215
   41 H                |  25 C                |     2.04590  |     1.08264
   42 C                |  26 C                |     2.88763  |     1.52807
   43 C                |  26 C                |     2.89661  |     1.53282
   44 H                |  26 C                |     2.06424  |     1.09235
   45 H                |  27 C                |     2.04635  |     1.08288
   46 H                |  29 C                |     2.06287  |     1.09163
   47 H                |  29 C                |     2.06323  |     1.09181
   48 H                |  29 C                |     2.06251  |     1.09143
   49 H                |  30 C                |     2.06242  |     1.09139
   50 H                |  30 C                |     2.06349  |     1.09195
   51 H                |  30 C                |     2.06481  |     1.09265
   52 H                |  33 C                |     2.06185  |     1.09108
   53 H                |  33 C                |     2.06481  |     1.09265
   54 H                |  33 C                |     2.06368  |     1.09206
   55 H                |  34 C                |     2.06332  |     1.09186
   56 H                |  34 C                |     2.06255  |     1.09145
   57 H                |  34 C                |     2.06385  |     1.09214
   58 H                |  36 C                |     2.04657  |     1.08300
   59 H                |  38 C                |     2.06326  |     1.09183
   60 H                |  38 C                |     2.06306  |     1.09172
   61 H                |  38 C                |     2.06331  |     1.09186
   62 H                |  39 C                |     2.06019  |     1.09021
   63 H                |  39 C                |     2.06515  |     1.09283
   64 H                |  39 C                |     2.06394  |     1.09219
   65 H                |  42 C                |     2.05818  |     1.08914
   66 H                |  42 C                |     2.06483  |     1.09266
   67 H                |  42 C                |     2.06491  |     1.09270
   68 H                |  43 C                |     2.06348  |     1.09195
   69 H                |  43 C                |     2.06370  |     1.09206
   70 H                |  43 C                |     2.06465  |     1.09257
   71 N                |   1 C                |     2.75889  |     1.45994
   71 N                |   3 Ni               |     3.63526  |     1.92370
   73 C                |  72 C                |     2.62207  |     1.38754
   75 C                |  72 C                |     2.62223  |     1.38762
   75 C                |  74 H                |     2.04667  |     1.08305
   76 C                |  73 C                |     2.61721  |     1.38497
   77 C                |   1 C                |     2.85300  |     1.50974
   77 C                |  76 C                |     2.63899  |     1.39649
   78 C                |  75 C                |     2.62136  |     1.38717
   78 C                |  77 C                |     2.64013  |     1.39710
   79 H                |  76 C                |     2.04325  |     1.08124
   80 H                |  78 C                |     2.03935  |     1.07918
   81 H                |  72 C                |     2.04609  |     1.08274
   82 H                |  73 C                |     2.04689  |     1.08317
   83 C                |  71 N                |     2.72435  |     1.44167
   84 C                |  83 C                |     2.62179  |     1.38739
   85 C                |  83 C                |     2.62078  |     1.38686
   86 C                |  84 C                |     2.62029  |     1.38660
   87 H                |  84 C                |     2.04755  |     1.08352
   88 C                |  85 C                |     2.62250  |     1.38777
   89 H                |  85 C                |     2.05151  |     1.08561
   90 C                |  86 C                |     2.62400  |     1.38856
   90 C                |  88 C                |     2.62443  |     1.38879
   91 H                |  86 C                |     2.04521  |     1.08228
   92 H                |  88 C                |     2.04613  |     1.08277
   93 H                |  90 C                |     2.04517  |     1.08226
   94 C                |  71 N                |     2.79123  |     1.47706
   95 H                |  94 C                |     2.06543  |     1.09298
   96 H                |  94 C                |     2.05792  |     1.08900
   97 H                |  94 C                |     2.04966  |     1.08463
 ------------------------------------------------------------------------------
                         number of included internuclear distances:        102
 ==============================================================================



 ==============================================================================
                                 internuclear angles
 ------------------------------------------------------------------------------
        center 1       |       center 2       |       center 3       |  degrees
 ------------------------------------------------------------------------------
    2 O                |   1 C                |   3 Ni               |   114.30
    2 O                |   1 C                |  71 N                |   118.19
    2 O                |   1 C                |  77 C                |   119.52
    1 C                |  71 N                |   3 Ni               |    72.86
    3 Ni               |   1 C                |  77 C                |   104.28
   71 N                |   1 C                |  77 C                |   120.06
    1 C                |   3 Ni               |   4 C                |   137.55
    3 Ni               |  71 N                |   1 C                |    72.86
    4 C                |   3 Ni               |  71 N                |   172.79
    3 Ni               |   4 C                |   5 N                |   121.35
    3 Ni               |   4 C                |   6 N                |   132.05
    5 N                |   4 C                |   6 N                |   106.44
    4 C                |   5 N                |   7 C                |   113.95
    4 C                |   5 N                |   8 C                |   121.98
    7 C                |   5 N                |   8 C                |   123.32
    4 C                |   6 N                |   9 C                |   113.56
    4 C                |   6 N                |  10 C                |   124.17
    9 C                |   6 N                |  10 C                |   121.62
    5 N                |   7 C                |   9 C                |   101.43
    5 N                |   7 C                |  11 H                |   111.16
    5 N                |   7 C                |  12 H                |   110.67
    9 C                |   7 C                |  11 H                |   112.93
    9 C                |   7 C                |  12 H                |   112.41
   11 H                |   7 C                |  12 H                |   108.17
    5 N                |   8 C                |  13 C                |   118.78
    5 N                |   8 C                |  14 C                |   119.39
   13 C                |   8 C                |  14 C                |   121.83
    6 N                |   9 C                |   7 C                |   102.11
    6 N                |   9 C                |  15 H                |   110.13
    6 N                |   9 C                |  16 H                |   110.95
    7 C                |   9 C                |  15 H                |   112.13
    7 C                |   9 C                |  16 H                |   113.17
   15 H                |   9 C                |  16 H                |   108.27
    6 N                |  10 C                |  17 C                |   118.26
    6 N                |  10 C                |  18 C                |   119.62
   17 C                |  10 C                |  18 C                |   122.12
    8 C                |  13 C                |  19 C                |   118.17
    8 C                |  13 C                |  20 C                |   121.71
   19 C                |  13 C                |  20 C                |   120.12
    8 C                |  14 C                |  21 C                |   118.13
    8 C                |  14 C                |  22 C                |   121.91
   21 C                |  14 C                |  22 C                |   119.96
   10 C                |  17 C                |  23 C                |   118.12
   10 C                |  17 C                |  24 C                |   121.89
   23 C                |  17 C                |  24 C                |   119.99
   10 C                |  18 C                |  25 C                |   117.82
   10 C                |  18 C                |  26 C                |   121.89
   25 C                |  18 C                |  26 C                |   120.21
   13 C                |  19 C                |  27 C                |   120.85
   13 C                |  19 C                |  28 H                |   119.57
   27 C                |  19 C                |  28 H                |   119.58
   13 C                |  20 C                |  29 C                |   111.03
   13 C                |  20 C                |  30 C                |   111.30
   13 C                |  20 C                |  31 H                |   107.68
   29 C                |  20 C                |  30 C                |   111.34
   29 C                |  20 C                |  31 H                |   108.00
   30 C                |  20 C                |  31 H                |   107.29
   14 C                |  21 C                |  27 C                |   120.87
   14 C                |  21 C                |  32 H                |   119.54
   27 C                |  21 C                |  32 H                |   119.58
   14 C                |  22 C                |  33 C                |   111.68
   14 C                |  22 C                |  34 C                |   110.46
   14 C                |  22 C                |  35 H                |   108.05
   33 C                |  22 C                |  34 C                |   111.31
   33 C                |  22 C                |  35 H                |   106.98
   34 C                |  22 C                |  35 H                |   108.18
   17 C                |  23 C                |  36 C                |   120.72
   17 C                |  23 C                |  37 H                |   119.59
   36 C                |  23 C                |  37 H                |   119.70
   17 C                |  24 C                |  38 C                |   111.48
   17 C                |  24 C                |  39 C                |   110.76
   17 C                |  24 C                |  40 H                |   107.90
   38 C                |  24 C                |  39 C                |   111.31
   38 C                |  24 C                |  40 H                |   107.92
   39 C                |  24 C                |  40 H                |   107.28
   18 C                |  25 C                |  36 C                |   120.98
   18 C                |  25 C                |  41 H                |   119.48
   36 C                |  25 C                |  41 H                |   119.54
   18 C                |  26 C                |  42 C                |   112.81
   18 C                |  26 C                |  43 C                |   109.85
   18 C                |  26 C                |  44 H                |   107.84
   42 C                |  26 C                |  43 C                |   110.40
   42 C                |  26 C                |  44 H                |   107.33
   43 C                |  26 C                |  44 H                |   108.45
   19 C                |  27 C                |  21 C                |   120.09
   19 C                |  27 C                |  45 H                |   119.93
   21 C                |  27 C                |  45 H                |   119.98
   20 C                |  29 C                |  46 H                |   111.29
   20 C                |  29 C                |  47 H                |   111.23
   20 C                |  29 C                |  48 H                |   110.43
   46 H                |  29 C                |  47 H                |   107.67
   46 H                |  29 C                |  48 H                |   108.35
   47 H                |  29 C                |  48 H                |   107.72
   20 C                |  30 C                |  49 H                |   110.49
   20 C                |  30 C                |  50 H                |   110.55
   20 C                |  30 C                |  51 H                |   111.05
   49 H                |  30 C                |  50 H                |   108.50
   49 H                |  30 C                |  51 H                |   108.29
   50 H                |  30 C                |  51 H                |   107.87
   22 C                |  33 C                |  52 H                |   110.38
   22 C                |  33 C                |  53 H                |   111.35
   22 C                |  33 C                |  54 H                |   110.38
   52 H                |  33 C                |  53 H                |   108.42
   52 H                |  33 C                |  54 H                |   108.34
   53 H                |  33 C                |  54 H                |   107.88
   22 C                |  34 C                |  55 H                |   111.34
   22 C                |  34 C                |  56 H                |   110.62
   22 C                |  34 C                |  57 H                |   110.94
   55 H                |  34 C                |  56 H                |   108.39
   55 H                |  34 C                |  57 H                |   107.56
   56 H                |  34 C                |  57 H                |   107.84
   23 C                |  36 C                |  25 C                |   120.20
   23 C                |  36 C                |  58 H                |   119.92
   25 C                |  36 C                |  58 H                |   119.88
   24 C                |  38 C                |  59 H                |   111.50
   24 C                |  38 C                |  60 H                |   111.12
   24 C                |  38 C                |  61 H                |   110.41
   59 H                |  38 C                |  60 H                |   107.63
   59 H                |  38 C                |  61 H                |   108.38
   60 H                |  38 C                |  61 H                |   107.66
   24 C                |  39 C                |  62 H                |   110.78
   24 C                |  39 C                |  63 H                |   110.72
   24 C                |  39 C                |  64 H                |   110.97
   62 H                |  39 C                |  63 H                |   108.69
   62 H                |  39 C                |  64 H                |   107.64
   63 H                |  39 C                |  64 H                |   107.93
   26 C                |  42 C                |  65 H                |   111.00
   26 C                |  42 C                |  66 H                |   111.22
   26 C                |  42 C                |  67 H                |   109.78
   65 H                |  42 C                |  66 H                |   108.07
   65 H                |  42 C                |  67 H                |   109.50
   66 H                |  42 C                |  67 H                |   107.18
   26 C                |  43 C                |  68 H                |   112.03
   26 C                |  43 C                |  69 H                |   110.61
   26 C                |  43 C                |  70 H                |   110.23
   68 H                |  43 C                |  69 H                |   108.45
   68 H                |  43 C                |  70 H                |   107.44
   69 H                |  43 C                |  70 H                |   107.93
    1 C                |  71 N                |   3 Ni               |    72.86
    1 C                |  71 N                |  83 C                |   122.58
    1 C                |  71 N                |  94 C                |   113.64
    3 Ni               |  71 N                |  83 C                |   120.78
    3 Ni               |  71 N                |  94 C                |   112.40
   83 C                |  71 N                |  94 C                |   110.14
   73 C                |  72 C                |  75 C                |   119.32
   73 C                |  72 C                |  81 H                |   120.39
   75 C                |  72 C                |  81 H                |   120.29
   72 C                |  73 C                |  76 C                |   120.27
   72 C                |  73 C                |  82 H                |   120.20
   76 C                |  73 C                |  82 H                |   119.53
   72 C                |  75 C                |  74 H                |   120.11
   72 C                |  75 C                |  78 C                |   120.58
   74 H                |  75 C                |  78 C                |   119.31
   73 C                |  76 C                |  77 C                |   120.93
   73 C                |  76 C                |  79 H                |   121.17
   77 C                |  76 C                |  79 H                |   117.89
    1 C                |  77 C                |  76 C                |   114.77
    1 C                |  77 C                |  78 C                |   126.85
   76 C                |  77 C                |  78 C                |   118.38
   75 C                |  78 C                |  77 C                |   120.50
   75 C                |  78 C                |  80 H                |   118.49
   77 C                |  78 C                |  80 H                |   121.01
   71 N                |  83 C                |  84 C                |   119.81
   71 N                |  83 C                |  85 C                |   119.56
   84 C                |  83 C                |  85 C                |   120.56
   83 C                |  84 C                |  86 C                |   119.67
   83 C                |  84 C                |  87 H                |   119.40
   86 C                |  84 C                |  87 H                |   120.92
   83 C                |  85 C                |  88 C                |   119.55
   83 C                |  85 C                |  89 H                |   119.12
   88 C                |  85 C                |  89 H                |   121.32
   84 C                |  86 C                |  90 C                |   120.11
   84 C                |  86 C                |  91 H                |   119.76
   90 C                |  86 C                |  91 H                |   120.13
   85 C                |  88 C                |  90 C                |   120.18
   85 C                |  88 C                |  92 H                |   119.68
   90 C                |  88 C                |  92 H                |   120.14
   86 C                |  90 C                |  88 C                |   119.92
   86 C                |  90 C                |  93 H                |   119.98
   88 C                |  90 C                |  93 H                |   120.09
   71 N                |  94 C                |  95 H                |   110.12
   71 N                |  94 C                |  96 H                |   108.07
   71 N                |  94 C                |  97 H                |   109.59
   95 H                |  94 C                |  96 H                |   109.69
   95 H                |  94 C                |  97 H                |   108.93
   96 H                |  94 C                |  97 H                |   110.44
 ------------------------------------------------------------------------------
                            number of included internuclear angles:        186
 ==============================================================================



                      Basis "ao basis" -> "" (cartesian)
                      -----
  C (Carbon)
  ----------
            Exponent  Coefficients 
       -------------- ---------------------------------------------------------
  1 S  4.56324000E+03  0.001967
  1 S  6.82024000E+02  0.015231
  1 S  1.54973000E+02  0.076127
  1 S  4.44553000E+01  0.260801
  1 S  1.30290000E+01  0.616462
  1 S  1.82773000E+00  0.221006

  2 S  2.09642000E+01  0.114660
  2 S  4.80331000E+00  0.919999
  2 S  1.45933000E+00 -0.003031

  3 P  2.09642000E+01  0.040249
  3 P  4.80331000E+00  0.237594
  3 P  1.45933000E+00  0.815854

  4 S  4.83456000E-01  1.000000

  5 P  4.83456000E-01  1.000000

  6 S  1.45585000E-01  1.000000

  7 P  1.45585000E-01  1.000000

  8 S  4.38000000E-02  1.000000

  9 P  4.38000000E-02  1.000000

 10 D  6.26000000E-01  1.000000

  H (Hydrogen)
  ------------
            Exponent  Coefficients 
       -------------- ---------------------------------------------------------
  1 S  3.38650000E+01  0.025494
  1 S  5.09479000E+00  0.190373
  1 S  1.15879000E+00  0.852161

  2 S  3.25840000E-01  1.000000

  3 S  1.02741000E-01  1.000000

  O (Oxygen)
  ----------
            Exponent  Coefficients 
       -------------- ---------------------------------------------------------
  1 S  8.58850000E+03  0.001895
  1 S  1.29723000E+03  0.014386
  1 S  2.99296000E+02  0.070732
  1 S  8.73771000E+01  0.240001
  1 S  2.56789000E+01  0.594797
  1 S  3.74004000E+00  0.280802

  2 S  4.21175000E+01  0.113889
  2 S  9.62837000E+00  0.920811
  2 S  2.85332000E+00 -0.003274

  3 P  4.21175000E+01  0.036511
  3 P  9.62837000E+00  0.237153
  3 P  2.85332000E+00  0.819702

  4 S  9.05661000E-01  1.000000

  5 P  9.05661000E-01  1.000000

  6 S  2.55611000E-01  1.000000

  7 P  2.55611000E-01  1.000000

  8 S  8.45000000E-02  1.000000

  9 P  8.45000000E-02  1.000000

 10 D  1.29200000E+00  1.000000

  N (Nitrogen)
  ------------
            Exponent  Coefficients 
       -------------- ---------------------------------------------------------
  1 S  6.29348000E+03  0.001970
  1 S  9.49044000E+02  0.014961
  1 S  2.18776000E+02  0.073501
  1 S  6.36916000E+01  0.248937
  1 S  1.88282000E+01  0.602460
  1 S  2.72023000E+00  0.256202

  2 S  3.06331000E+01  0.111906
  2 S  7.02614000E+00  0.921666
  2 S  2.11205000E+00 -0.002569

  3 P  3.06331000E+01  0.038312
  3 P  7.02614000E+00  0.237403
  3 P  2.11205000E+00  0.817592

  4 S  6.84009000E-01  1.000000

  5 P  6.84009000E-01  1.000000

  6 S  2.00878000E-01  1.000000

  7 P  2.00878000E-01  1.000000

  8 S  6.39000000E-02  1.000000

  9 P  6.39000000E-02  1.000000

 10 D  9.13000000E-01  1.000000

  Ni (Nickel)
  -----------
            Exponent  Coefficients 
       -------------- ---------------------------------------------------------
  1 S  7.62000000E+00  1.000000

  2 S  2.29400000E+00  1.000000

  3 S  8.76000000E-01  1.000000

  4 S  1.15300000E-01  1.000000

  5 S  3.96000000E-02  1.000000

  6 P  2.36600000E+01  1.000000

  7 P  2.89300000E+00  1.000000

  8 P  9.43500000E-01  1.000000

  9 P  8.40000000E-02  1.000000

 10 P  2.40000000E-02  1.000000

 11 D  4.27200000E+01  0.037270
 11 D  1.17600000E+01  0.195610
 11 D  3.81700000E+00  0.456127

 12 D  1.16900000E+00  1.000000

 13 D  2.83600000E-01  1.000000



 Summary of "ao basis" -> "" (cartesian)
 ------------------------------------------------------------------------------
       Tag                 Description            Shells   Functions and Types
 ---------------- ------------------------------  ------  ---------------------
 C                          6-311+G*                10       23   5s4p1d
 H                          6-311+G*                 3        3   3s
 O                          6-311+G*                10       23   5s4p1d
 N                          6-311+G*                10       23   5s4p1d
 Ni                         LANL2TZ                 13       38   5s5p3d


                 ECP       "ecp basis" -> "" (cartesian)
                -----
  Ni (Nickel) Replaces    10 electrons
  ------------------------------------
             Channel    R-exponent     Exponent     Coefficients
         ------------ ---------------------------------------------------------
  1 U L       Both         1.00      469.932433     -10.000000
  1 U L       Both         2.00       85.423641     -69.408481
  1 U L       Both         2.00       21.267498     -12.095102

  2 U-s       Both         0.00      162.168610       3.000000
  2 U-s       Both         1.00      176.533323      22.025362
  2 U-s       Both         2.00       68.956201     443.018109
  2 U-s       Both         2.00       13.579284     145.569641

  3 U-p       Both         0.00       69.018151       5.000000
  3 U-p       Both         1.00      275.595560       4.988282
  3 U-p       Both         2.00       47.131545     256.694585
  3 U-p       Both         2.00       12.987408      78.475445


                                 NWChem DFT Module
                                 -----------------


                          Ni complex single-point energy




 Summary of "ao basis" -> "ao basis" (cartesian)
 ------------------------------------------------------------------------------
       Tag                 Description            Shells   Functions and Types
 ---------------- ------------------------------  ------  ---------------------
 C                          6-311+G*                10       23   5s4p1d
 H                          6-311+G*                 3        3   3s
 O                          6-311+G*                10       23   5s4p1d
 N                          6-311+G*                10       23   5s4p1d
 Ni                         LANL2TZ                 13       38   5s5p3d


  int_init: cando_txs set to always be  F
  Caching 1-el integrals 

            General Information
            -------------------
          SCF calculation type: DFT
          Wavefunction type:  closed shell.
          No. of atoms     :    97
          No. of electrons :   344
           Alpha electrons :   172
            Beta electrons :   172
          Charge           :     0
          Spin multiplicity:     1
          Use of symmetry is: off; symmetry adaption is: off
          Maximum number of iterations: 100
          This is a Direct SCF calculation.
          AO basis - number of functions:  1226
                     number of shells:   616
          Convergence on energy requested:  1.00D-06
          Convergence on density requested:  1.00D-05
          Convergence on gradient requested:  5.00D-04

              XC Information
              --------------
                    wb97x-d3  Method XC Functional
                     Hartree-Fock (Exact) Exchange  1.000          
                      wb97x-d3 Exchange Functional  1.000          
                   wb97x-d3 Correlation Functional  1.000          

           Range-Separation Parameters        
           ---------------------------
           Alpha           :  0.20
           Beta            :  0.80
           Gamma           :  0.25
           Short-Range HF  :     F

             Grid Information
             ----------------
          Grid used for XC integration:  xfine     
          Radial quadrature: Mura-Knowles        
          Angular quadrature: Lebedev. 
          Tag              B.-S. Rad. Rad. Pts. Rad. Cut. Ang. Pts.
          ---              ---------- --------- --------- ---------
          C                   0.70      100          25.0      1454
          O                   0.60      100          21.0      1454
          Ni                  1.35      160          19.0      1454
          N                   0.65      100          21.0      1454
          H                   0.35      100          25.0      1202
          Grid pruning is: on 
          Number of quadrature shells:  9760
          Spatial weights used:  Erf1

          Convergence Information
          -----------------------
          Convergence aids based upon iterative change in 
          total energy or number of iterations. 
          Levelshifting, if invoked, occurs when the 
          HOMO/LUMO gap drops below (HL_TOL):  1.00D-02
          DIIS, if invoked, will attempt to extrapolate 
          using up to (NFOCK): 10 stored Fock matrices.

                    Damping( 0%)  Levelshifting(0.5)       DIIS
                  --------------- ------------------- ---------------
          dE  on:    start            ASAP                start   
          dE off:    2 iters        100 iters           100 iters 


      Screening Tolerance Information
      -------------------------------
          Density screening/tol_rho:  1.00D-10
          AO Gaussian exp screening on grid/accAOfunc:  14
          CD Gaussian exp screening on grid/accCDfunc:  20
          XC Gaussian exp screening on grid/accXCfunc:  20
          Schwarz screening/accCoul:  1.00D-08

      Dispersion Parameters
      ---------------------

             DFT-D3 Model   
          s6 scale factor  :        1.000000000000
          s8 scale factor  :        1.000000000000
          sr6 scale factor :        1.281000000000
          sr8 scale factor :        1.094000000000
              vdW contrib  :       -0.082617096402


 WARNING : Found    34 linear dependencies 
 S eigenvalue threshold:     1.00000E-05
 Smallest S eigenvalue :     3.76591E-08
 Largest  S eigenvalue :     9.88819E-06


 !! The overlap matrix has  34 vectors deemed linearly dependent with
    eigenvalues:
 3.77D-08 5.75D-08 6.52D-08 8.69D-08 1.96D-07 2.18D-07 2.48D-07 2.77D-07
 3.85D-07 5.61D-07 6.10D-07 7.82D-07 1.03D-06 1.14D-06 1.25D-06 1.39D-06
 1.66D-06 1.90D-06 2.23D-06 2.35D-06 2.39D-06 2.81D-06 3.74D-06 3.95D-06
 4.95D-06 5.40D-06 5.77D-06 6.64D-06 7.30D-06 8.32D-06 8.37D-06 8.95D-06
 9.71D-06 9.89D-06


 !! nbf/nmo/basis-name mismatch 
           nbf=1226 nbf_file= 866
           nmo=1192 nmo_file= 866
           basis="ao basis" basis_file="ao basis"

  Either an incorrect movecs file was specified, or linear dependence has changed,
  or the basis name was changed. 

 Loading old vectors from job with title :

Ni complex single-point energy


  Load of old vectors failed.   Forcing atomic density guess


      Superposition of Atomic Density Guess
      -------------------------------------

 Sum of atomic energies:       -1993.92340820
