 argument  1 = nwchem.in
  NWChem w/ OpenMP: maximum threads =    1
                                         
                                         


             Northwest Computational Chemistry Package (NWChem) 7.2.3
             --------------------------------------------------------


                    Environmental Molecular Sciences Laboratory
                       Pacific Northwest National Laboratory
                                Richland, WA 99352

                              Copyright (c) 1994-2022
                       Pacific Northwest National Laboratory
                            Battelle Memorial Institute

             NWChem is an open-source computational chemistry package
                        distributed under the terms of the
                      Educational Community License (ECL) 2.0
             A copy of the license is included with this distribution
                              in the LICENSE.TXT file

                                  ACKNOWLEDGMENT
                                  --------------

            This software and its documentation were developed at the
            EMSL at Pacific Northwest National Laboratory, a multiprogram
            national laboratory, operated for the U.S. Department of Energy
            by Battelle under Contract Number DE-AC05-76RL01830. Support
            for this work was provided by the Department of Energy Office
            of Biological and Environmental Research, Office of Basic
            Energy Sciences, and the Office of Advanced Scientific Computing.


           Job information
           ---------------

    hostname        = 26d5bae24e30
    program         = nwchem
    date            = Sun Jun 29 06:41:10 2025

    compiled        = Fri_May_02_22:05:35_2025
    source          = /opt/nwchem
    nwchem branch   = 7.2.3
    nwchem revision = N/A
    ga revision     = 5.9.1
    use scalapack   = T
    input           = nwchem.in
    prefix          = ni_singlepoint.
    data base       = ./ni_singlepoint.db
    status          = startup
    nproc           =        5
    time left       =     -1s



           Memory information
           ------------------

    heap     =    509724440 doubles =     3888.9 Mbytes
    stack    =    509724441 doubles =     3888.9 Mbytes
    global   =    291271111 doubles =     2222.2 Mbytes (distinct from heap & stack)
    total    =   1310719992 doubles =    10000.0 Mbytes
    verify   = yes
    hardfail = no 


           Directory information
           ---------------------

  0 permanent = .
  0 scratch   = .




                                NWChem Input Module
                                -------------------


                          Ni complex single-point energy
                          ------------------------------

 Scaling coordinates for geometry "geometry" by  1.889725989
 (inverse scale =  0.529177249)

 C1  symmetry detected

          ------
          auto-z
          ------
  no constraints, skipping    0.0000000000000000     
  no constraints, skipping    0.0000000000000000     


                             Geometry "geometry" -> ""
                             -------------------------

 Output coordinates in angstroms (scale by  1.889725989 to convert to a.u.)

  No.       Tag          Charge          X              Y              Z
 ---- ---------------- ---------- -------------- -------------- --------------
    1 C                    6.0000     1.39679863     0.84315543    -1.14817647
    2 O                    8.0000     1.28699449     1.59438720    -2.08795463
    3 Ni                  28.0000     0.09844901    -0.41557318    -0.83040386
    4 C                    6.0000    -1.11136528     0.48760345     0.32235149
    5 N                    7.0000    -1.99650126    -0.27838218     0.98189457
    6 N                    7.0000    -1.44515520     1.75963030     0.54563112
    7 C                    6.0000    -3.00341238     0.47513349     1.72971140
    8 C                    6.0000    -1.93181126    -1.70538390     1.00759871
    9 C                    6.0000    -2.68048436     1.91554446     1.32278362
   10 C                    6.0000    -0.75369791     2.90779172     0.04723264
   11 H                    1.0000    -4.00768412     0.16614607     1.43556782
   12 H                    1.0000    -2.89370805     0.30499663     2.80311583
   13 C                    6.0000    -2.52282319    -2.42799469    -0.03499095
   14 C                    6.0000    -1.28741148    -2.33336743     2.08089581
   15 H                    1.0000    -3.45839439     2.35854176     0.69691169
   16 H                    1.0000    -2.51456225     2.57286985     2.17621364
   17 C                    6.0000     0.14164228     3.55953349     0.90048022
   18 C                    6.0000    -1.01198487     3.35015823    -1.25238187
   19 C                    6.0000    -2.42588420    -3.81562721     0.00190776
   20 C                    6.0000    -3.29109562    -1.74724537    -1.15193827
   21 C                    6.0000    -1.23790938    -3.72169895     2.08744029
   22 C                    6.0000    -0.65297555    -1.54218330     3.20828970
   23 C                    6.0000     0.81727063     4.66857968     0.40463312
   24 C                    6.0000     0.34945777     3.12187103     2.33925472
   25 C                    6.0000    -0.31744518     4.46529692    -1.70320324
   26 C                    6.0000    -2.02981692     2.66662887    -2.14516436
   27 C                    6.0000    -1.79161021    -4.45649743     1.05123921
   28 H                    1.0000    -2.85290253    -4.40142468    -0.80217125
   29 C                    6.0000    -4.79136060    -2.01546173    -0.99562139
   30 C                    6.0000    -2.79740728    -2.16915930    -2.53593363
   31 H                    1.0000    -3.13255805    -0.67040414    -1.06132942
   32 H                    1.0000    -0.73852561    -4.23542262     2.89978836
   33 C                    6.0000     0.81090091    -1.93051059     3.42091202
   34 C                    6.0000    -1.44961750    -1.71211571     4.50482114
   35 H                    1.0000    -0.66929441    -0.48610625     2.92944714
   36 C                    6.0000     0.59437832     5.11353265    -0.88741470
   37 H                    1.0000     1.52631093     5.18934298     1.03657878
   38 C                    6.0000    -0.23674529     4.15949471     3.30263773
   39 C                    6.0000     1.81911964     2.86157974     2.66726266
   40 H                    1.0000    -0.18566637     2.18026800     2.48561475
   41 H                    1.0000    -0.47830200     4.82212350    -2.71239988
   42 C                    6.0000    -1.49966621     2.40867386    -3.55570577
   43 C                    6.0000    -3.32200989     3.48833282    -2.20148792
   44 H                    1.0000    -2.26156056     1.69442070    -1.70442581
   45 H                    1.0000    -1.71887532    -5.53643746     1.05772738
   46 H                    1.0000    -5.15749372    -1.69555291    -0.01774436
   47 H                    1.0000    -5.00457945    -3.08186226    -1.09508105
   48 H                    1.0000    -5.35694662    -1.48594833    -1.76435989
   49 H                    1.0000    -1.72258457    -2.00813297    -2.63484680
   50 H                    1.0000    -3.31251632    -1.59374272    -3.30759323
   51 H                    1.0000    -2.99935550    -3.22574858    -2.72335819
   52 H                    1.0000     1.37672946    -1.86344184     2.49209141
   53 H                    1.0000     0.90001306    -2.95219979     3.79512579
   54 H                    1.0000     1.27416459    -1.26717974     4.15366738
   55 H                    1.0000    -2.49614951    -1.42900930     4.37719037
   56 H                    1.0000    -1.02202969    -1.10130015     5.30197505
   57 H                    1.0000    -1.42987486    -2.75383133     4.83198807
   58 H                    1.0000     1.13512911     5.97371326    -1.26146102
   59 H                    1.0000    -1.28912902     4.36192938     3.09390930
   60 H                    1.0000     0.30073389     5.10624420     3.21773505
   61 H                    1.0000    -0.14924578     3.81638203     4.33546670
   62 H                    1.0000     2.24715228     2.11125269     2.00516773
   63 H                    1.0000     1.91597094     2.50849372     3.69622260
   64 H                    1.0000     2.41289791     3.77296013     2.57361012
   65 H                    1.0000    -0.54064865     1.89556728    -3.51737212
   66 H                    1.0000    -1.36908919     3.34219243    -4.10741334
   67 H                    1.0000    -2.21321147     1.79867405    -4.11370840
   68 H                    1.0000    -3.73868357     3.66584829    -1.20806019
   69 H                    1.0000    -4.07525668     2.97754145    -2.80471450
   70 H                    1.0000    -3.13101164     4.46333410    -2.65543836
   71 N                    7.0000     0.83342417    -1.59851045    -2.02809635
   72 C                    6.0000     4.91663834     0.99244465     1.27750145
   73 C                    6.0000     4.68042321     1.97596487     0.32277328
   74 H                    1.0000     4.21974600    -0.83746642     2.15888151
   75 C                    6.0000     4.02754168    -0.06345999     1.42642987
   76 C                    6.0000     3.54668782     1.91212538    -0.46992648
   77 C                    6.0000     2.64246215     0.86604490    -0.30684176
   78 C                    6.0000     2.89167345    -0.12516471     0.63174464
   79 H                    1.0000     3.33545244     2.66306669    -1.22067554
   80 H                    1.0000     2.19614714    -0.95080152     0.72164141
   81 H                    1.0000     5.79970879     1.04805200     1.90176260
   82 H                    1.0000     5.38333209     2.79048451     0.19973506
   83 C                    6.0000     1.65046653    -2.63626045    -1.61518008
   84 C                    6.0000     2.74286079    -3.11688327    -2.35526780
   85 C                    6.0000     1.36999873    -3.28315380    -0.39685867
   86 C                    6.0000     3.49974827    -4.18675803    -1.89547222
   87 H                    1.0000     3.01338109    -2.64925635    -3.29112972
   88 C                    6.0000     2.12627750    -4.34808565     0.05033733
   89 H                    1.0000     0.51063073    -2.94977029     0.17532471
   90 C                    6.0000     3.20298045    -4.81744005    -0.69782775
   91 H                    1.0000     4.33864285    -4.52879028    -2.49027612
   92 H                    1.0000     1.86107875    -4.83306112     0.98354536
   93 H                    1.0000     3.78879344    -5.66117003    -0.35765303
   94 C                    6.0000     1.00048429    -1.17264409    -3.40560281
   95 H                    1.0000     1.99117337    -0.74989517    -3.61793360
   96 H                    1.0000     0.83941813    -2.01172838    -4.09332922
   97 H                    1.0000     0.27066981    -0.39734149    -3.63404708

      Atomic Mass 
      ----------- 

      C                 12.000000
      O                 15.994910
      Ni                57.935300
      N                 14.003070
      H                  1.007825


 Effective nuclear repulsion energy (a.u.)    7259.4747706587

            Nuclear Dipole moment (a.u.) 
            ----------------------------
        X                 Y               Z
 ---------------- ---------------- ----------------
    -0.0000000000    -0.0000000000     0.0000000000



                                Z-matrix (autoz)
                                -------- 

 Units are Angstrom for bonds and degrees for angles

      Type          Name      I     J     K     L     M      Value
      ----------- --------  ----- ----- ----- ----- ----- ----------
    1 Stretch                  1     2                       1.20813
    2 Stretch                  1     3                       1.83605
    3 Stretch                  1    77                       1.50334
    4 Stretch                  3     4                       1.89953
    5 Stretch                  3    71                       1.83684
    6 Stretch                  4     5                       1.34358
    7 Stretch                  4     6                       1.33391
    8 Stretch                  5     7                       1.46318
    9 Stretch                  5     8                       1.42870
   10 Stretch                  6     9                       1.46776
   11 Stretch                  6    10                       1.42996
   12 Stretch                  7     9                       1.53123
   13 Stretch                  7    11                       1.09113
   14 Stretch                  7    12                       1.09233
   15 Stretch                  8    13                       1.39945
   16 Stretch                  8    14                       1.40056
   17 Stretch                  9    15                       1.09229
   18 Stretch                  9    16                       1.08993
   19 Stretch                 10    17                       1.39801
   20 Stretch                 10    18                       1.39692
   21 Stretch                 13    19                       1.39150
   22 Stretch                 13    20                       1.51698
   23 Stretch                 14    21                       1.38923
   24 Stretch                 14    22                       1.51641
   25 Stretch                 17    23                       1.39008
   26 Stretch                 17    24                       1.51816
   27 Stretch                 18    25                       1.38894
   28 Stretch                 18    26                       1.51666
   29 Stretch                 19    27                       1.38352
   30 Stretch                 19    28                       1.08261
   31 Stretch                 20    29                       1.53205
   32 Stretch                 20    30                       1.52878
   33 Stretch                 20    31                       1.09221
   34 Stretch                 21    27                       1.38572
   35 Stretch                 21    32                       1.08315
   36 Stretch                 22    33                       1.52936
   37 Stretch                 22    34                       1.53118
   38 Stretch                 22    35                       1.09239
   39 Stretch                 23    36                       1.38458
   40 Stretch                 23    37                       1.08318
   41 Stretch                 24    38                       1.53245
   42 Stretch                 24    39                       1.52815
   43 Stretch                 24    40                       1.09288
   44 Stretch                 25    36                       1.38461
   45 Stretch                 25    41                       1.08244
   46 Stretch                 26    42                       1.52880
   47 Stretch                 26    43                       1.53236
   48 Stretch                 26    44                       1.09231
   49 Stretch                 27    45                       1.08241
   50 Stretch                 29    46                       1.09208
   51 Stretch                 29    47                       1.09205
   52 Stretch                 29    48                       1.09144
   53 Stretch                 30    49                       1.09131
   54 Stretch                 30    50                       1.09174
   55 Stretch                 30    51                       1.09192
   56 Stretch                 33    52                       1.08966
   57 Stretch                 33    53                       1.09171
   58 Stretch                 33    54                       1.09158
   59 Stretch                 34    55                       1.09164
   60 Stretch                 34    56                       1.09150
   61 Stretch                 34    57                       1.09206
   62 Stretch                 36    58                       1.08270
   63 Stretch                 38    59                       1.09181
   64 Stretch                 38    60                       1.09198
   65 Stretch                 38    61                       1.09184
   66 Stretch                 39    62                       1.08838
   67 Stretch                 39    63                       1.09216
   68 Stretch                 39    64                       1.09177
   69 Stretch                 42    65                       1.08833
   70 Stretch                 42    66                       1.09219
   71 Stretch                 42    67                       1.09207
   72 Stretch                 43    68                       1.09180
   73 Stretch                 43    69                       1.09187
   74 Stretch                 43    70                       1.09233
   75 Stretch                 71    83                       1.38383
   76 Stretch                 71    94                       1.45148
   77 Stretch                 72    73                       1.39090
   78 Stretch                 72    75                       1.38838
   79 Stretch                 72    81                       1.08287
   80 Stretch                 73    76                       1.38485
   81 Stretch                 73    82                       1.08289
   82 Stretch                 74    75                       1.08283
   83 Stretch                 75    78                       1.38763
   84 Stretch                 76    77                       1.39230
   85 Stretch                 76    79                       1.08266
   86 Stretch                 77    78                       1.38764
   87 Stretch                 78    80                       1.08329
   88 Stretch                 83    84                       1.40430
   89 Stretch                 83    85                       1.40764
   90 Stretch                 84    86                       1.38886
   91 Stretch                 84    87                       1.08060
   92 Stretch                 85    88                       1.38059
   93 Stretch                 85    89                       1.08492
   94 Stretch                 86    90                       1.38571
   95 Stretch                 86    91                       1.08375
   96 Stretch                 88    90                       1.39260
   97 Stretch                 88    92                       1.08462
   98 Stretch                 90    93                       1.08202
   99 Stretch                 94    95                       1.09785
  100 Stretch                 94    96                       1.09680
  101 Stretch                 94    97                       1.08899
  102 Bend                     1     3     4               103.26440
  103 Bend                     1     3    71                92.61972
  104 Bend                     1    77    76               118.94795
  105 Bend                     1    77    78               121.09579
  106 Bend                     2     1     3               119.77862
  107 Bend                     2     1    77               120.07763
  108 Bend                     3     1    77               119.96777
  109 Bend                     3     4     5               116.51381
  110 Bend                     3     4     6               135.59153
  111 Bend                     3    71    83               121.64351
  112 Bend                     3    71    94               118.41854
  113 Bend                     4     3    71               163.08700
  114 Bend                     4     5     7               114.24555
  115 Bend                     4     5     8               123.25970
  116 Bend                     4     6     9               113.61157
  117 Bend                     4     6    10               125.89766
  118 Bend                     5     4     6               107.25592
  119 Bend                     5     7     9               101.74098
  120 Bend                     5     7    11               110.47359
  121 Bend                     5     7    12               110.66548
  122 Bend                     5     8    13               118.89561
  123 Bend                     5     8    14               118.84662
  124 Bend                     6     9     7               102.60826
  125 Bend                     6     9    15               109.82181
  126 Bend                     6     9    16               110.51978
  127 Bend                     6    10    17               118.11745
  128 Bend                     6    10    18               119.28273
  129 Bend                     7     5     8               122.43475
  130 Bend                     7     9    15               112.55625
  131 Bend                     7     9    16               113.03773
  132 Bend                     8    13    19               117.75823
  133 Bend                     8    13    20               122.05329
  134 Bend                     8    14    21               117.91064
  135 Bend                     8    14    22               121.89032
  136 Bend                     9     6    10               120.41304
  137 Bend                     9     7    11               112.88317
  138 Bend                     9     7    12               112.73608
  139 Bend                    10    17    23               117.74329
  140 Bend                    10    17    24               122.11950
  141 Bend                    10    18    25               117.62982
  142 Bend                    10    18    26               121.93871
  143 Bend                    11     7    12               108.25448
  144 Bend                    13     8    14               122.25605
  145 Bend                    13    19    27               120.92930
  146 Bend                    13    19    28               119.49967
  147 Bend                    13    20    29               110.01420
  148 Bend                    13    20    30               112.28221
  149 Bend                    13    20    31               107.92922
  150 Bend                    14    21    27               120.80786
  151 Bend                    14    21    32               119.60011
  152 Bend                    14    22    33               111.79878
  153 Bend                    14    22    34               110.72913
  154 Bend                    14    22    35               107.96154
  155 Bend                    15     9    16               108.20884
  156 Bend                    17    10    18               122.58835
  157 Bend                    17    23    36               120.73157
  158 Bend                    17    23    37               119.57880
  159 Bend                    17    24    38               110.37861
  160 Bend                    17    24    39               112.59228
  161 Bend                    17    24    40               107.95512
  162 Bend                    18    25    36               120.92719
  163 Bend                    18    25    41               119.53610
  164 Bend                    18    26    42               112.73306
  165 Bend                    18    26    43               110.23584
  166 Bend                    18    26    44               107.81783
  167 Bend                    19    13    20               120.15296
  168 Bend                    19    27    21               120.31183
  169 Bend                    19    27    45               119.83582
  170 Bend                    20    29    46               111.61601
  171 Bend                    20    29    47               110.66254
  172 Bend                    20    29    48               110.52727
  173 Bend                    20    30    49               111.06220
  174 Bend                    20    30    50               110.00179
  175 Bend                    20    30    51               111.26704
  176 Bend                    21    14    22               120.19873
  177 Bend                    21    27    45               119.84947
  178 Bend                    22    33    52               111.27847
  179 Bend                    22    33    53               111.31017
  180 Bend                    22    33    54               110.19719
  181 Bend                    22    34    55               111.77739
  182 Bend                    22    34    56               110.63936
  183 Bend                    22    34    57               110.49557
  184 Bend                    23    17    24               120.10077
  185 Bend                    23    36    25               120.35586
  186 Bend                    23    36    58               119.82178
  187 Bend                    24    38    59               111.96686
  188 Bend                    24    38    60               110.48039
  189 Bend                    24    38    61               110.56330
  190 Bend                    24    39    62               111.41212
  191 Bend                    24    39    63               110.03381
  192 Bend                    24    39    64               111.25086
  193 Bend                    25    18    26               120.42155
  194 Bend                    25    36    58               119.82232
  195 Bend                    26    42    65               110.64796
  196 Bend                    26    42    66               111.30327
  197 Bend                    26    42    67               109.82228
  198 Bend                    26    43    68               112.05931
  199 Bend                    26    43    69               110.56045
  200 Bend                    26    43    70               110.27113
  201 Bend                    27    19    28               119.57103
  202 Bend                    27    21    32               119.57387
  203 Bend                    29    20    30               111.11749
  204 Bend                    29    20    31               107.83539
  205 Bend                    30    20    31               107.47704
  206 Bend                    33    22    34               110.61591
  207 Bend                    33    22    35               107.17319
  208 Bend                    34    22    35               108.40074
  209 Bend                    36    23    37               119.68961
  210 Bend                    36    25    41               119.52780
  211 Bend                    38    24    39               110.38214
  212 Bend                    38    24    40               108.17270
  213 Bend                    39    24    40               107.18181
  214 Bend                    42    26    43               110.42564
  215 Bend                    42    26    44               107.19794
  216 Bend                    43    26    44               108.25199
  217 Bend                    46    29    47               107.58674
  218 Bend                    46    29    48               108.35051
  219 Bend                    47    29    48               107.96486
  220 Bend                    49    30    50               108.83606
  221 Bend                    49    30    51               108.02155
  222 Bend                    50    30    51               107.54312
  223 Bend                    52    33    53               107.90247
  224 Bend                    52    33    54               108.32542
  225 Bend                    53    33    54               107.69574
  226 Bend                    55    34    56               108.40995
  227 Bend                    55    34    57               107.44219
  228 Bend                    56    34    57               107.93465
  229 Bend                    59    38    60               107.38633
  230 Bend                    59    38    61               108.44256
  231 Bend                    60    38    61               107.85202
  232 Bend                    62    39    63               108.38359
  233 Bend                    62    39    64               108.02422
  234 Bend                    63    39    64               107.60562
  235 Bend                    65    42    66               108.38557
  236 Bend                    65    42    67               109.29342
  237 Bend                    66    42    67               107.30354
  238 Bend                    68    43    69               108.38948
  239 Bend                    68    43    70               107.44210
  240 Bend                    69    43    70               107.97471
  241 Bend                    71    83    84               123.96515
  242 Bend                    71    83    85               119.02858
  243 Bend                    71    94    95               113.60272
  244 Bend                    71    94    96               110.71444
  245 Bend                    71    94    97               109.31946
  246 Bend                    72    73    76               119.95656
  247 Bend                    72    73    82               119.97475
  248 Bend                    72    75    74               120.16660
  249 Bend                    72    75    78               119.77415
  250 Bend                    73    72    75               120.17548
  251 Bend                    73    72    81               119.86037
  252 Bend                    73    76    77               119.95174
  253 Bend                    73    76    79               121.64667
  254 Bend                    74    75    78               120.05918
  255 Bend                    75    72    81               119.96312
  256 Bend                    75    78    77               120.17266
  257 Bend                    75    78    80               120.79224
  258 Bend                    76    73    82               120.06868
  259 Bend                    76    77    78               119.95218
  260 Bend                    77    76    79               118.40103
  261 Bend                    77    78    80               119.02827
  262 Bend                    83    71    94               115.80117
  263 Bend                    83    84    86               120.87063
  264 Bend                    83    84    87               120.20255
  265 Bend                    83    85    88               121.71492
  266 Bend                    83    85    89               118.23397
  267 Bend                    84    83    85               116.99065
  268 Bend                    84    86    90               121.33356
  269 Bend                    84    86    91               118.89853
  270 Bend                    85    88    90               120.62963
  271 Bend                    85    88    92               119.31836
  272 Bend                    86    84    87               118.92378
  273 Bend                    86    90    88               118.45823
  274 Bend                    86    90    93               120.70851
  275 Bend                    88    85    89               120.00710
  276 Bend                    88    90    93               120.83048
  277 Bend                    90    86    91               119.76786
  278 Bend                    90    88    92               120.03878
  279 Bend                    95    94    96               107.80847
  280 Bend                    95    94    97               106.86026
  281 Bend                    96    94    97               108.34309
  282 Torsion                  1     3     4     5        -164.48983
  283 Torsion                  1     3     4     6          26.08145
  284 Torsion                  1     3    71    83          98.40195
  285 Torsion                  1     3    71    94         -57.77164
  286 Torsion                  1    77    76    73         178.01746
  287 Torsion                  1    77    76    79          -1.71494
  288 Torsion                  1    77    78    75        -178.03982
  289 Torsion                  1    77    78    80           2.90369
  290 Torsion                  2     1     3     4         -90.30987
  291 Torsion                  2     1     3    71          83.83668
  292 Torsion                  2     1    77    76          11.56765
  293 Torsion                  2     1    77    78        -169.16735
  294 Torsion                  3     1    77    76        -173.26361
  295 Torsion                  3     1    77    78           6.00139
  296 Torsion                  3     4     5     7        -173.10698
  297 Torsion                  3     4     5     8           9.65156
  298 Torsion                  3     4     6     9         165.85514
  299 Torsion                  3     4     6    10         -10.92808
  300 Torsion                  3    71    83    84        -145.54368
  301 Torsion                  3    71    83    85          35.93871
  302 Torsion                  3    71    94    95          93.46042
  303 Torsion                  3    71    94    96        -145.06920
  304 Torsion                  3    71    94    97         -25.78734
  305 Torsion                  4     3     1    77          94.50686
  306 Torsion                  4     3    71    83        -101.54845
  307 Torsion                  4     3    71    94         102.27796
  308 Torsion                  4     5     7     9           5.05224
  309 Torsion                  4     5     7    11         125.15414
  310 Torsion                  4     5     7    12        -114.96652
  311 Torsion                  4     5     8    13         -85.44615
  312 Torsion                  4     5     8    14          95.02040
  313 Torsion                  4     6     9     7           7.15548
  314 Torsion                  4     6     9    15        -112.74199
  315 Torsion                  4     6     9    16         127.94544
  316 Torsion                  4     6    10    17         -98.86757
  317 Torsion                  4     6    10    18          82.33265
  318 Torsion                  5     4     3    71          36.00927
  319 Torsion                  5     4     6     9          -4.24649
  320 Torsion                  5     4     6    10         178.97029
  321 Torsion                  5     7     9     6          -6.70666
  322 Torsion                  5     7     9    15         111.27347
  323 Torsion                  5     7     9    16        -125.74805
  324 Torsion                  5     8    13    19         178.91884
  325 Torsion                  5     8    13    20          -3.24757
  326 Torsion                  5     8    14    21         179.88997
  327 Torsion                  5     8    14    22          -0.31435
  328 Torsion                  6     4     3    71        -133.41946
  329 Torsion                  6     4     5     7          -0.83261
  330 Torsion                  6     4     5     8        -178.07407
  331 Torsion                  6     9     7    11        -125.09785
  332 Torsion                  6     9     7    12         111.84266
  333 Torsion                  6    10    17    23         179.51372
  334 Torsion                  6    10    17    24          -2.68140
  335 Torsion                  6    10    18    25        -179.75457
  336 Torsion                  6    10    18    26           1.38751
  337 Torsion                  7     5     8    13          97.53415
  338 Torsion                  7     5     8    14         -81.99930
  339 Torsion                  7     9     6    10        -175.86591
  340 Torsion                  8     5     7     9        -177.68075
  341 Torsion                  8     5     7    11         -57.57885
  342 Torsion                  8     5     7    12          62.30049
  343 Torsion                  8    13    19    27           1.41015
  344 Torsion                  8    13    19    28        -178.58278
  345 Torsion                  8    13    20    29        -108.01617
  346 Torsion                  8    13    20    30         127.67598
  347 Torsion                  8    13    20    31           9.40076
  348 Torsion                  8    14    21    27           1.01037
  349 Torsion                  8    14    21    32         179.45363
  350 Torsion                  8    14    22    33        -126.11059
  351 Torsion                  8    14    22    34         110.05283
  352 Torsion                  8    14    22    35          -8.46856
  353 Torsion                  9     6    10    17          84.55042
  354 Torsion                  9     6    10    18         -94.24935
  355 Torsion                 10     6     9    15          64.23662
  356 Torsion                 10     6     9    16         -55.07595
  357 Torsion                 10    17    23    36           0.64267
  358 Torsion                 10    17    23    37        -179.31200
  359 Torsion                 10    17    24    38        -109.82158
  360 Torsion                 10    17    24    39         126.33095
  361 Torsion                 10    17    24    40           8.22021
  362 Torsion                 10    18    25    36          -0.18509
  363 Torsion                 10    18    25    41         178.72345
  364 Torsion                 10    18    26    42        -133.26090
  365 Torsion                 10    18    26    43         102.83995
  366 Torsion                 10    18    26    44         -15.13600
  367 Torsion                 11     7     9    15          -7.11772
  368 Torsion                 11     7     9    16         115.86076
  369 Torsion                 12     7     9    15        -130.17720
  370 Torsion                 12     7     9    16          -7.19872
  371 Torsion                 13     8    14    21           0.37298
  372 Torsion                 13     8    14    22        -179.83135
  373 Torsion                 13    19    27    21          -0.08884
  374 Torsion                 13    19    27    45        -179.47148
  375 Torsion                 13    20    29    46          56.34268
  376 Torsion                 13    20    29    47         -63.44477
  377 Torsion                 13    20    29    48         177.00466
  378 Torsion                 13    20    30    49         -54.44528
  379 Torsion                 13    20    30    50        -175.00034
  380 Torsion                 13    20    30    51          65.92877
  381 Torsion                 14     8    13    19          -1.56440
  382 Torsion                 14     8    13    20         176.26920
  383 Torsion                 14    21    27    19          -1.16494
  384 Torsion                 14    21    27    45         178.21762
  385 Torsion                 14    22    33    52          53.13003
  386 Torsion                 14    22    33    53         -67.26891
  387 Torsion                 14    22    33    54         173.31488
  388 Torsion                 14    22    34    55         -56.13086
  389 Torsion                 14    22    34    56        -177.05415
  390 Torsion                 14    22    34    57          63.46832
  391 Torsion                 17    10    18    25           1.50182
  392 Torsion                 17    10    18    26        -177.35610
  393 Torsion                 17    23    36    25           0.60849
  394 Torsion                 17    23    36    58        -179.46495
  395 Torsion                 17    24    38    59          55.14546
  396 Torsion                 17    24    38    60         -64.49763
  397 Torsion                 17    24    38    61         176.18626
  398 Torsion                 17    24    39    62         -57.31285
  399 Torsion                 17    24    39    63        -177.54909
  400 Torsion                 17    24    39    64          63.29164
  401 Torsion                 18    10    17    23          -1.72876
  402 Torsion                 18    10    17    24         176.07613
  403 Torsion                 18    25    36    23          -0.84686
  404 Torsion                 18    25    36    58         179.22658
  405 Torsion                 18    26    42    65          51.61768
  406 Torsion                 18    26    42    66         -68.96137
  407 Torsion                 18    26    42    67         172.35867
  408 Torsion                 18    26    43    68         -56.28532
  409 Torsion                 18    26    43    69        -177.31939
  410 Torsion                 18    26    43    70          63.34743
  411 Torsion                 19    13    20    29          69.76670
  412 Torsion                 19    13    20    30         -54.54115
  413 Torsion                 19    13    20    31        -172.81636
  414 Torsion                 19    27    21    32        -179.60860
  415 Torsion                 20    13    19    27        -176.46639
  416 Torsion                 20    13    19    28           3.54068
  417 Torsion                 21    14    22    33          53.68050
  418 Torsion                 21    14    22    34         -70.15608
  419 Torsion                 21    14    22    35         171.32253
  420 Torsion                 21    27    19    28         179.90408
  421 Torsion                 22    14    21    27        -178.78890
  422 Torsion                 22    14    21    32          -0.34564
  423 Torsion                 23    17    24    38          67.93279
  424 Torsion                 23    17    24    39         -55.91467
  425 Torsion                 23    17    24    40        -174.02542
  426 Torsion                 23    36    25    41        -179.75549
  427 Torsion                 24    17    23    36        -177.20842
  428 Torsion                 24    17    23    37           2.83690
  429 Torsion                 25    18    26    42          47.91248
  430 Torsion                 25    18    26    43         -75.98666
  431 Torsion                 25    18    26    44         166.03738
  432 Torsion                 25    36    23    37        -179.43689
  433 Torsion                 26    18    25    36         178.69100
  434 Torsion                 26    18    25    41          -2.40046
  435 Torsion                 28    19    27    45           0.52145
  436 Torsion                 29    20    30    49        -178.13944
  437 Torsion                 29    20    30    50          61.30550
  438 Torsion                 29    20    30    51         -57.76539
  439 Torsion                 30    20    29    46        -178.67866
  440 Torsion                 30    20    29    47          61.53389
  441 Torsion                 30    20    29    48         -58.01668
  442 Torsion                 31    20    29    46         -61.13255
  443 Torsion                 31    20    29    47         179.08000
  444 Torsion                 31    20    29    48          59.52943
  445 Torsion                 31    20    30    49          64.09678
  446 Torsion                 31    20    30    50         -56.45828
  447 Torsion                 31    20    30    51        -175.52917
  448 Torsion                 32    21    27    45          -0.22605
  449 Torsion                 33    22    34    55         179.35654
  450 Torsion                 33    22    34    56          58.43325
  451 Torsion                 33    22    34    57         -61.04429
  452 Torsion                 34    22    33    52         177.03025
  453 Torsion                 34    22    33    53          56.63131
  454 Torsion                 34    22    33    54         -62.78489
  455 Torsion                 35    22    33    52         -64.98383
  456 Torsion                 35    22    33    53         174.61723
  457 Torsion                 35    22    33    54          55.20103
  458 Torsion                 35    22    34    55          62.12363
  459 Torsion                 35    22    34    56         -58.79966
  460 Torsion                 35    22    34    57        -178.27719
  461 Torsion                 37    23    36    58           0.48968
  462 Torsion                 38    24    39    62         178.84164
  463 Torsion                 38    24    39    63          58.60540
  464 Torsion                 38    24    39    64         -60.55387
  465 Torsion                 39    24    38    59        -179.74017
  466 Torsion                 39    24    38    60          60.61674
  467 Torsion                 39    24    38    61         -58.69938
  468 Torsion                 40    24    38    59         -62.76272
  469 Torsion                 40    24    38    60         177.59419
  470 Torsion                 40    24    38    61          58.27807
  471 Torsion                 40    24    39    62          61.25190
  472 Torsion                 40    24    39    63         -58.98434
  473 Torsion                 40    24    39    64        -178.14361
  474 Torsion                 41    25    36    58           0.31794
  475 Torsion                 42    26    43    68         178.49061
  476 Torsion                 42    26    43    69          57.45654
  477 Torsion                 42    26    43    70         -61.87664
  478 Torsion                 43    26    42    65         175.41196
  479 Torsion                 43    26    42    66          54.83291
  480 Torsion                 43    26    42    67         -63.84705
  481 Torsion                 44    26    42    65         -66.87029
  482 Torsion                 44    26    42    66         172.55067
  483 Torsion                 44    26    42    67          53.87070
  484 Torsion                 44    26    43    68          61.42300
  485 Torsion                 44    26    43    69         -59.61107
  486 Torsion                 44    26    43    70        -178.94425
  487 Torsion                 71     3     1    77         -91.34659
  488 Torsion                 71    83    84    86        -178.29044
  489 Torsion                 71    83    84    87           2.35041
  490 Torsion                 71    83    85    88         178.20368
  491 Torsion                 71    83    85    89           0.61723
  492 Torsion                 72    73    76    77           0.22698
  493 Torsion                 72    73    76    79         179.95046
  494 Torsion                 72    75    78    77          -0.14865
  495 Torsion                 72    75    78    80         178.89098
  496 Torsion                 73    72    75    74         179.02212
  497 Torsion                 73    72    75    78          -0.88417
  498 Torsion                 73    76    77    78          -1.25614
  499 Torsion                 74    75    72    81          -0.60712
  500 Torsion                 74    75    78    77         179.94495
  501 Torsion                 74    75    78    80          -1.01543
  502 Torsion                 75    72    73    76           0.84485
  503 Torsion                 75    72    73    82        -179.12668
  504 Torsion                 75    78    77    76           1.21788
  505 Torsion                 76    73    72    81        -179.52552
  506 Torsion                 76    77    78    80        -177.83861
  507 Torsion                 77    76    73    82        -179.80152
  508 Torsion                 78    75    72    81         179.48658
  509 Torsion                 78    77    76    79         179.01146
  510 Torsion                 79    76    73    82          -0.07804
  511 Torsion                 81    72    73    82           0.50295
  512 Torsion                 83    71    94    95         -64.08263
  513 Torsion                 83    71    94    96          57.38776
  514 Torsion                 83    71    94    97         176.66962
  515 Torsion                 83    84    86    90           0.19041
  516 Torsion                 83    84    86    91        -179.73132
  517 Torsion                 83    85    88    90           0.13461
  518 Torsion                 83    85    88    92        -178.54298
  519 Torsion                 84    83    71    94          11.21359
  520 Torsion                 84    83    85    88          -0.41660
  521 Torsion                 84    83    85    89        -178.00305
  522 Torsion                 84    86    90    88          -0.47851
  523 Torsion                 84    86    90    93         178.92012
  524 Torsion                 85    83    71    94        -167.30402
  525 Torsion                 85    83    84    86           0.25496
  526 Torsion                 85    83    84    87        -179.10419
  527 Torsion                 85    88    90    86           0.31682
  528 Torsion                 85    88    90    93        -179.08104
  529 Torsion                 86    90    88    92         178.98491
  530 Torsion                 87    84    86    90         179.55762
  531 Torsion                 87    84    86    91          -0.36410
  532 Torsion                 88    90    86    91         179.44254
  533 Torsion                 89    85    88    90         177.67906
  534 Torsion                 89    85    88    92          -0.99854
  535 Torsion                 91    86    90    93          -1.15883
  536 Torsion                 92    88    90    93          -0.41296


            XYZ format geometry
            -------------------
    97
 geometry
 C                     1.39679863     0.84315543    -1.14817647
 O                     1.28699449     1.59438720    -2.08795463
 Ni                    0.09844901    -0.41557318    -0.83040386
 C                    -1.11136528     0.48760345     0.32235149
 N                    -1.99650126    -0.27838218     0.98189457
 N                    -1.44515520     1.75963030     0.54563112
 C                    -3.00341238     0.47513349     1.72971140
 C                    -1.93181126    -1.70538390     1.00759871
 C                    -2.68048436     1.91554446     1.32278362
 C                    -0.75369791     2.90779172     0.04723264
 H                    -4.00768412     0.16614607     1.43556782
 H                    -2.89370805     0.30499663     2.80311583
 C                    -2.52282319    -2.42799469    -0.03499095
 C                    -1.28741148    -2.33336743     2.08089581
 H                    -3.45839439     2.35854176     0.69691169
 H                    -2.51456225     2.57286985     2.17621364
 C                     0.14164228     3.55953349     0.90048022
 C                    -1.01198487     3.35015823    -1.25238187
 C                    -2.42588420    -3.81562721     0.00190776
 C                    -3.29109562    -1.74724537    -1.15193827
 C                    -1.23790938    -3.72169895     2.08744029
 C                    -0.65297555    -1.54218330     3.20828970
 C                     0.81727063     4.66857968     0.40463312
 C                     0.34945777     3.12187103     2.33925472
 C                    -0.31744518     4.46529692    -1.70320324
 C                    -2.02981692     2.66662887    -2.14516436
 C                    -1.79161021    -4.45649743     1.05123921
 H                    -2.85290253    -4.40142468    -0.80217125
 C                    -4.79136060    -2.01546173    -0.99562139
 C                    -2.79740728    -2.16915930    -2.53593363
 H                    -3.13255805    -0.67040414    -1.06132942
 H                    -0.73852561    -4.23542262     2.89978836
 C                     0.81090091    -1.93051059     3.42091202
 C                    -1.44961750    -1.71211571     4.50482114
 H                    -0.66929441    -0.48610625     2.92944714
 C                     0.59437832     5.11353265    -0.88741470
 H                     1.52631093     5.18934298     1.03657878
 C                    -0.23674529     4.15949471     3.30263773
 C                     1.81911964     2.86157974     2.66726266
 H                    -0.18566637     2.18026800     2.48561475
 H                    -0.47830200     4.82212350    -2.71239988
 C                    -1.49966621     2.40867386    -3.55570577
 C                    -3.32200989     3.48833282    -2.20148792
 H                    -2.26156056     1.69442070    -1.70442581
 H                    -1.71887532    -5.53643746     1.05772738
 H                    -5.15749372    -1.69555291    -0.01774436
 H                    -5.00457945    -3.08186226    -1.09508105
 H                    -5.35694662    -1.48594833    -1.76435989
 H                    -1.72258457    -2.00813297    -2.63484680
 H                    -3.31251632    -1.59374272    -3.30759323
 H                    -2.99935550    -3.22574858    -2.72335819
 H                     1.37672946    -1.86344184     2.49209141
 H                     0.90001306    -2.95219979     3.79512579
 H                     1.27416459    -1.26717974     4.15366738
 H                    -2.49614951    -1.42900930     4.37719037
 H                    -1.02202969    -1.10130015     5.30197505
 H                    -1.42987486    -2.75383133     4.83198807
 H                     1.13512911     5.97371326    -1.26146102
 H                    -1.28912902     4.36192938     3.09390930
 H                     0.30073389     5.10624420     3.21773505
 H                    -0.14924578     3.81638203     4.33546670
 H                     2.24715228     2.11125269     2.00516773
 H                     1.91597094     2.50849372     3.69622260
 H                     2.41289791     3.77296013     2.57361012
 H                    -0.54064865     1.89556728    -3.51737212
 H                    -1.36908919     3.34219243    -4.10741334
 H                    -2.21321147     1.79867405    -4.11370840
 H                    -3.73868357     3.66584829    -1.20806019
 H                    -4.07525668     2.97754145    -2.80471450
 H                    -3.13101164     4.46333410    -2.65543836
 N                     0.83342417    -1.59851045    -2.02809635
 C                     4.91663834     0.99244465     1.27750145
 C                     4.68042321     1.97596487     0.32277328
 H                     4.21974600    -0.83746642     2.15888151
 C                     4.02754168    -0.06345999     1.42642987
 C                     3.54668782     1.91212538    -0.46992648
 C                     2.64246215     0.86604490    -0.30684176
 C                     2.89167345    -0.12516471     0.63174464
 H                     3.33545244     2.66306669    -1.22067554
 H                     2.19614714    -0.95080152     0.72164141
 H                     5.79970879     1.04805200     1.90176260
 H                     5.38333209     2.79048451     0.19973506
 C                     1.65046653    -2.63626045    -1.61518008
 C                     2.74286079    -3.11688327    -2.35526780
 C                     1.36999873    -3.28315380    -0.39685867
 C                     3.49974827    -4.18675803    -1.89547222
 H                     3.01338109    -2.64925635    -3.29112972
 C                     2.12627750    -4.34808565     0.05033733
 H                     0.51063073    -2.94977029     0.17532471
 C                     3.20298045    -4.81744005    -0.69782775
 H                     4.33864285    -4.52879028    -2.49027612
 H                     1.86107875    -4.83306112     0.98354536
 H                     3.78879344    -5.66117003    -0.35765303
 C                     1.00048429    -1.17264409    -3.40560281
 H                     1.99117337    -0.74989517    -3.61793360
 H                     0.83941813    -2.01172838    -4.09332922
 H                     0.27066981    -0.39734149    -3.63404708

 ==============================================================================
                                internuclear distances
 ------------------------------------------------------------------------------
       center one      |      center two      | atomic units |  angstroms
 ------------------------------------------------------------------------------
    2 O                |   1 C                |     2.28304  |     1.20813
    3 Ni               |   1 C                |     3.46964  |     1.83605
    4 C                |   3 Ni               |     3.58960  |     1.89953
    5 N                |   4 C                |     2.53899  |     1.34358
    6 N                |   4 C                |     2.52073  |     1.33391
    7 C                |   5 N                |     2.76500  |     1.46318
    8 C                |   5 N                |     2.69985  |     1.42870
    9 C                |   6 N                |     2.77366  |     1.46776
    9 C                |   7 C                |     2.89360  |     1.53123
   10 C                |   6 N                |     2.70223  |     1.42996
   11 H                |   7 C                |     2.06193  |     1.09113
   12 H                |   7 C                |     2.06420  |     1.09233
   13 C                |   8 C                |     2.64457  |     1.39945
   14 C                |   8 C                |     2.64668  |     1.40056
   15 H                |   9 C                |     2.06414  |     1.09229
   16 H                |   9 C                |     2.05967  |     1.08993
   17 C                |  10 C                |     2.64186  |     1.39801
   18 C                |  10 C                |     2.63980  |     1.39692
   19 C                |  13 C                |     2.62956  |     1.39150
   20 C                |  13 C                |     2.86668  |     1.51698
   21 C                |  14 C                |     2.62526  |     1.38923
   22 C                |  14 C                |     2.86560  |     1.51641
   23 C                |  17 C                |     2.62687  |     1.39008
   24 C                |  17 C                |     2.86891  |     1.51816
   25 C                |  18 C                |     2.62472  |     1.38894
   26 C                |  18 C                |     2.86607  |     1.51666
   27 C                |  19 C                |     2.61446  |     1.38352
   27 C                |  21 C                |     2.61864  |     1.38572
   28 H                |  19 C                |     2.04584  |     1.08261
   29 C                |  20 C                |     2.89515  |     1.53205
   30 C                |  20 C                |     2.88898  |     1.52878
   31 H                |  20 C                |     2.06398  |     1.09221
   32 H                |  21 C                |     2.04685  |     1.08315
   33 C                |  22 C                |     2.89007  |     1.52936
   34 C                |  22 C                |     2.89351  |     1.53118
   35 H                |  22 C                |     2.06432  |     1.09239
   36 C                |  23 C                |     2.61647  |     1.38458
   36 C                |  25 C                |     2.61653  |     1.38461
   37 H                |  23 C                |     2.04692  |     1.08318
   38 C                |  24 C                |     2.89591  |     1.53245
   39 C                |  24 C                |     2.88779  |     1.52815
   40 H                |  24 C                |     2.06525  |     1.09288
   41 H                |  25 C                |     2.04552  |     1.08244
   42 C                |  26 C                |     2.88901  |     1.52880
   43 C                |  26 C                |     2.89574  |     1.53236
   44 H                |  26 C                |     2.06417  |     1.09231
   45 H                |  27 C                |     2.04545  |     1.08241
   46 H                |  29 C                |     2.06373  |     1.09208
   47 H                |  29 C                |     2.06367  |     1.09205
   48 H                |  29 C                |     2.06251  |     1.09144
   49 H                |  30 C                |     2.06228  |     1.09131
   50 H                |  30 C                |     2.06309  |     1.09174
   51 H                |  30 C                |     2.06343  |     1.09192
   52 H                |  33 C                |     2.05917  |     1.08966
   53 H                |  33 C                |     2.06303  |     1.09171
   54 H                |  33 C                |     2.06279  |     1.09158
   55 H                |  34 C                |     2.06289  |     1.09164
   56 H                |  34 C                |     2.06264  |     1.09150
   57 H                |  34 C                |     2.06370  |     1.09206
   58 H                |  36 C                |     2.04600  |     1.08270
   59 H                |  38 C                |     2.06323  |     1.09181
   60 H                |  38 C                |     2.06355  |     1.09198
   61 H                |  38 C                |     2.06328  |     1.09184
   62 H                |  39 C                |     2.05674  |     1.08838
   63 H                |  39 C                |     2.06388  |     1.09216
   64 H                |  39 C                |     2.06314  |     1.09177
   65 H                |  42 C                |     2.05665  |     1.08833
   66 H                |  42 C                |     2.06395  |     1.09219
   67 H                |  42 C                |     2.06371  |     1.09207
   68 H                |  43 C                |     2.06320  |     1.09180
   69 H                |  43 C                |     2.06333  |     1.09187
   70 H                |  43 C                |     2.06420  |     1.09233
   71 N                |   3 Ni               |     3.47113  |     1.83684
   73 C                |  72 C                |     2.62843  |     1.39090
   75 C                |  72 C                |     2.62366  |     1.38838
   75 C                |  74 H                |     2.04625  |     1.08283
   76 C                |  73 C                |     2.61698  |     1.38485
   77 C                |   1 C                |     2.84091  |     1.50334
   77 C                |  76 C                |     2.63107  |     1.39230
   78 C                |  75 C                |     2.62225  |     1.38763
   78 C                |  77 C                |     2.62226  |     1.38764
   79 H                |  76 C                |     2.04593  |     1.08266
   80 H                |  78 C                |     2.04712  |     1.08329
   81 H                |  72 C                |     2.04633  |     1.08287
   82 H                |  73 C                |     2.04637  |     1.08289
   83 C                |  71 N                |     2.61506  |     1.38383
   84 C                |  83 C                |     2.65374  |     1.40430
   85 C                |  83 C                |     2.66005  |     1.40764
   86 C                |  84 C                |     2.62456  |     1.38886
   87 H                |  84 C                |     2.04204  |     1.08060
   88 C                |  85 C                |     2.60893  |     1.38059
   89 H                |  85 C                |     2.05020  |     1.08492
   90 C                |  86 C                |     2.61861  |     1.38571
   90 C                |  88 C                |     2.63163  |     1.39260
   91 H                |  86 C                |     2.04800  |     1.08375
   92 H                |  88 C                |     2.04964  |     1.08462
   93 H                |  90 C                |     2.04473  |     1.08202
   94 C                |  71 N                |     2.74290  |     1.45148
   95 H                |  94 C                |     2.07463  |     1.09785
   96 H                |  94 C                |     2.07265  |     1.09680
   97 H                |  94 C                |     2.05790  |     1.08899
 ------------------------------------------------------------------------------
                         number of included internuclear distances:        101
 ==============================================================================



 ==============================================================================
                                 internuclear angles
 ------------------------------------------------------------------------------
        center 1       |       center 2       |       center 3       |  degrees
 ------------------------------------------------------------------------------
    2 O                |   1 C                |   3 Ni               |   119.78
    2 O                |   1 C                |  77 C                |   120.08
    3 Ni               |   1 C                |  77 C                |   119.97
    1 C                |   3 Ni               |   4 C                |   103.26
    1 C                |   3 Ni               |  71 N                |    92.62
    4 C                |   3 Ni               |  71 N                |   163.09
    3 Ni               |   4 C                |   5 N                |   116.51
    3 Ni               |   4 C                |   6 N                |   135.59
    5 N                |   4 C                |   6 N                |   107.26
    4 C                |   5 N                |   7 C                |   114.25
    4 C                |   5 N                |   8 C                |   123.26
    7 C                |   5 N                |   8 C                |   122.43
    4 C                |   6 N                |   9 C                |   113.61
    4 C                |   6 N                |  10 C                |   125.90
    9 C                |   6 N                |  10 C                |   120.41
    5 N                |   7 C                |   9 C                |   101.74
    5 N                |   7 C                |  11 H                |   110.47
    5 N                |   7 C                |  12 H                |   110.67
    9 C                |   7 C                |  11 H                |   112.88
    9 C                |   7 C                |  12 H                |   112.74
   11 H                |   7 C                |  12 H                |   108.25
    5 N                |   8 C                |  13 C                |   118.90
    5 N                |   8 C                |  14 C                |   118.85
   13 C                |   8 C                |  14 C                |   122.26
    6 N                |   9 C                |   7 C                |   102.61
    6 N                |   9 C                |  15 H                |   109.82
    6 N                |   9 C                |  16 H                |   110.52
    7 C                |   9 C                |  15 H                |   112.56
    7 C                |   9 C                |  16 H                |   113.04
   15 H                |   9 C                |  16 H                |   108.21
    6 N                |  10 C                |  17 C                |   118.12
    6 N                |  10 C                |  18 C                |   119.28
   17 C                |  10 C                |  18 C                |   122.59
    8 C                |  13 C                |  19 C                |   117.76
    8 C                |  13 C                |  20 C                |   122.05
   19 C                |  13 C                |  20 C                |   120.15
    8 C                |  14 C                |  21 C                |   117.91
    8 C                |  14 C                |  22 C                |   121.89
   21 C                |  14 C                |  22 C                |   120.20
   10 C                |  17 C                |  23 C                |   117.74
   10 C                |  17 C                |  24 C                |   122.12
   23 C                |  17 C                |  24 C                |   120.10
   10 C                |  18 C                |  25 C                |   117.63
   10 C                |  18 C                |  26 C                |   121.94
   25 C                |  18 C                |  26 C                |   120.42
   13 C                |  19 C                |  27 C                |   120.93
   13 C                |  19 C                |  28 H                |   119.50
   27 C                |  19 C                |  28 H                |   119.57
   13 C                |  20 C                |  29 C                |   110.01
   13 C                |  20 C                |  30 C                |   112.28
   13 C                |  20 C                |  31 H                |   107.93
   29 C                |  20 C                |  30 C                |   111.12
   29 C                |  20 C                |  31 H                |   107.84
   30 C                |  20 C                |  31 H                |   107.48
   14 C                |  21 C                |  27 C                |   120.81
   14 C                |  21 C                |  32 H                |   119.60
   27 C                |  21 C                |  32 H                |   119.57
   14 C                |  22 C                |  33 C                |   111.80
   14 C                |  22 C                |  34 C                |   110.73
   14 C                |  22 C                |  35 H                |   107.96
   33 C                |  22 C                |  34 C                |   110.62
   33 C                |  22 C                |  35 H                |   107.17
   34 C                |  22 C                |  35 H                |   108.40
   17 C                |  23 C                |  36 C                |   120.73
   17 C                |  23 C                |  37 H                |   119.58
   36 C                |  23 C                |  37 H                |   119.69
   17 C                |  24 C                |  38 C                |   110.38
   17 C                |  24 C                |  39 C                |   112.59
   17 C                |  24 C                |  40 H                |   107.96
   38 C                |  24 C                |  39 C                |   110.38
   38 C                |  24 C                |  40 H                |   108.17
   39 C                |  24 C                |  40 H                |   107.18
   18 C                |  25 C                |  36 C                |   120.93
   18 C                |  25 C                |  41 H                |   119.54
   36 C                |  25 C                |  41 H                |   119.53
   18 C                |  26 C                |  42 C                |   112.73
   18 C                |  26 C                |  43 C                |   110.24
   18 C                |  26 C                |  44 H                |   107.82
   42 C                |  26 C                |  43 C                |   110.43
   42 C                |  26 C                |  44 H                |   107.20
   43 C                |  26 C                |  44 H                |   108.25
   19 C                |  27 C                |  21 C                |   120.31
   19 C                |  27 C                |  45 H                |   119.84
   21 C                |  27 C                |  45 H                |   119.85
   20 C                |  29 C                |  46 H                |   111.62
   20 C                |  29 C                |  47 H                |   110.66
   20 C                |  29 C                |  48 H                |   110.53
   46 H                |  29 C                |  47 H                |   107.59
   46 H                |  29 C                |  48 H                |   108.35
   47 H                |  29 C                |  48 H                |   107.96
   20 C                |  30 C                |  49 H                |   111.06
   20 C                |  30 C                |  50 H                |   110.00
   20 C                |  30 C                |  51 H                |   111.27
   49 H                |  30 C                |  50 H                |   108.84
   49 H                |  30 C                |  51 H                |   108.02
   50 H                |  30 C                |  51 H                |   107.54
   22 C                |  33 C                |  52 H                |   111.28
   22 C                |  33 C                |  53 H                |   111.31
   22 C                |  33 C                |  54 H                |   110.20
   52 H                |  33 C                |  53 H                |   107.90
   52 H                |  33 C                |  54 H                |   108.33
   53 H                |  33 C                |  54 H                |   107.70
   22 C                |  34 C                |  55 H                |   111.78
   22 C                |  34 C                |  56 H                |   110.64
   22 C                |  34 C                |  57 H                |   110.50
   55 H                |  34 C                |  56 H                |   108.41
   55 H                |  34 C                |  57 H                |   107.44
   56 H                |  34 C                |  57 H                |   107.93
   23 C                |  36 C                |  25 C                |   120.36
   23 C                |  36 C                |  58 H                |   119.82
   25 C                |  36 C                |  58 H                |   119.82
   24 C                |  38 C                |  59 H                |   111.97
   24 C                |  38 C                |  60 H                |   110.48
   24 C                |  38 C                |  61 H                |   110.56
   59 H                |  38 C                |  60 H                |   107.39
   59 H                |  38 C                |  61 H                |   108.44
   60 H                |  38 C                |  61 H                |   107.85
   24 C                |  39 C                |  62 H                |   111.41
   24 C                |  39 C                |  63 H                |   110.03
   24 C                |  39 C                |  64 H                |   111.25
   62 H                |  39 C                |  63 H                |   108.38
   62 H                |  39 C                |  64 H                |   108.02
   63 H                |  39 C                |  64 H                |   107.61
   26 C                |  42 C                |  65 H                |   110.65
   26 C                |  42 C                |  66 H                |   111.30
   26 C                |  42 C                |  67 H                |   109.82
   65 H                |  42 C                |  66 H                |   108.39
   65 H                |  42 C                |  67 H                |   109.29
   66 H                |  42 C                |  67 H                |   107.30
   26 C                |  43 C                |  68 H                |   112.06
   26 C                |  43 C                |  69 H                |   110.56
   26 C                |  43 C                |  70 H                |   110.27
   68 H                |  43 C                |  69 H                |   108.39
   68 H                |  43 C                |  70 H                |   107.44
   69 H                |  43 C                |  70 H                |   107.97
    3 Ni               |  71 N                |  83 C                |   121.64
    3 Ni               |  71 N                |  94 C                |   118.42
   83 C                |  71 N                |  94 C                |   115.80
   73 C                |  72 C                |  75 C                |   120.18
   73 C                |  72 C                |  81 H                |   119.86
   75 C                |  72 C                |  81 H                |   119.96
   72 C                |  73 C                |  76 C                |   119.96
   72 C                |  73 C                |  82 H                |   119.97
   76 C                |  73 C                |  82 H                |   120.07
   72 C                |  75 C                |  74 H                |   120.17
   72 C                |  75 C                |  78 C                |   119.77
   74 H                |  75 C                |  78 C                |   120.06
   73 C                |  76 C                |  77 C                |   119.95
   73 C                |  76 C                |  79 H                |   121.65
   77 C                |  76 C                |  79 H                |   118.40
    1 C                |  77 C                |  76 C                |   118.95
    1 C                |  77 C                |  78 C                |   121.10
   76 C                |  77 C                |  78 C                |   119.95
   75 C                |  78 C                |  77 C                |   120.17
   75 C                |  78 C                |  80 H                |   120.79
   77 C                |  78 C                |  80 H                |   119.03
   71 N                |  83 C                |  84 C                |   123.97
   71 N                |  83 C                |  85 C                |   119.03
   84 C                |  83 C                |  85 C                |   116.99
   83 C                |  84 C                |  86 C                |   120.87
   83 C                |  84 C                |  87 H                |   120.20
   86 C                |  84 C                |  87 H                |   118.92
   83 C                |  85 C                |  88 C                |   121.71
   83 C                |  85 C                |  89 H                |   118.23
   88 C                |  85 C                |  89 H                |   120.01
   84 C                |  86 C                |  90 C                |   121.33
   84 C                |  86 C                |  91 H                |   118.90
   90 C                |  86 C                |  91 H                |   119.77
   85 C                |  88 C                |  90 C                |   120.63
   85 C                |  88 C                |  92 H                |   119.32
   90 C                |  88 C                |  92 H                |   120.04
   86 C                |  90 C                |  88 C                |   118.46
   86 C                |  90 C                |  93 H                |   120.71
   88 C                |  90 C                |  93 H                |   120.83
   71 N                |  94 C                |  95 H                |   113.60
   71 N                |  94 C                |  96 H                |   110.71
   71 N                |  94 C                |  97 H                |   109.32
   95 H                |  94 C                |  96 H                |   107.81
   95 H                |  94 C                |  97 H                |   106.86
   96 H                |  94 C                |  97 H                |   108.34
 ------------------------------------------------------------------------------
                            number of included internuclear angles:        180
 ==============================================================================



                      Basis "ao basis" -> "" (cartesian)
                      -----
  C (Carbon)
  ----------
            Exponent  Coefficients 
       -------------- ---------------------------------------------------------
  1 S  8.50603840E+03  0.000534
  1 S  1.27573290E+03  0.004125
  1 S  2.90311870E+02  0.021171
  1 S  8.20562000E+01  0.082418
  1 S  2.64796410E+01  0.240129

  2 S  9.24145850E+00  1.000000

  3 S  3.36435300E+00  1.000000

  4 S  8.71741640E-01  1.000000

  5 S  3.63523520E-01  1.000000

  6 S  1.28731350E-01  1.000000

  7 P  3.47094960E+01  0.005330
  7 P  7.95908830E+00  0.035866
  7 P  2.37869720E+00  0.142003
  7 P  8.15400650E-01  0.342031

  8 P  2.89537850E-01  1.000000

  9 P  1.00847540E-01  1.000000

  H (Hydrogen)
  ------------
            Exponent  Coefficients 
       -------------- ---------------------------------------------------------
  1 S  3.40613410E+01  0.006025
  1 S  5.12357460E+00  0.045021
  1 S  1.16466260E+00  0.201897

  2 S  3.27230410E-01  1.000000

  3 S  1.03072410E-01  1.000000

  O (Oxygen)
  ----------
            Exponent  Coefficients 
       -------------- ---------------------------------------------------------
  1 S  1.59026475E+04  0.000515
  1 S  2.38495378E+03  0.003982
  1 S  5.42719572E+02  0.020477
  1 S  1.53404079E+02  0.080262
  1 S  4.95457161E+01  0.237668

  2 S  1.73396499E+01  1.000000

  3 S  6.33033553E+00  1.000000

  4 S  1.69958822E+00  1.000000

  5 S  6.89544913E-01  1.000000

  6 S  2.39360282E-01  1.000000

  7 P  6.32705240E+01  0.006071
  7 P  1.46233123E+01  0.041948
  7 P  4.44895180E+00  0.161569
[...]
  ----- ------------  ---------------      ----- ------------  ---------------
   716      1.149873  78 C  s               712      1.136178  78 C  s         
   682     -0.933612  76 C  s               236     -0.928895  18 C  s         
   686     -0.895806  76 C  s               713     -0.884828  78 C  s         
   221      0.861582  17 C  s               217      0.827834  17 C  s         
   356      0.824631  26 C  s               185      0.816470  13 C  s         

 Vector  847  Occ=0.000000D+00  E= 6.331518D+01
              MO Center=  1.1D+00,  8.3D-01,  7.4D-01, r^2= 1.0D+01
   Bfn.  Coefficient  Atom+Function         Bfn.  Coefficient  Atom+Function  
  ----- ------------  ---------------      ----- ------------  ---------------
     6      1.381268   1 C  s               716     -1.323827  78 C  s         
   712     -1.208293  78 C  s               701     -1.179542  77 C  s         
   326     -1.156323  24 C  s               296      1.085219  22 C  s         
   322     -1.058718  24 C  s                 2      0.977988   1 C  s         
   697     -0.960566  77 C  s               713      0.944757  78 C  s         

 Vector  848  Occ=0.000000D+00  E= 6.333363D+01
              MO Center=  2.5D+00, -9.7D-01, -4.8D-01, r^2= 8.7D+00
   Bfn.  Coefficient  Atom+Function         Bfn.  Coefficient  Atom+Function  
  ----- ------------  ---------------      ----- ------------  ---------------
   739      1.290046  83 C  s               743      1.264400  83 C  s         
   686      1.103058  76 C  s               701      1.105937  77 C  s         
   712     -1.041548  78 C  s               716     -1.032480  78 C  s         
   697      1.009496  77 C  s               740     -1.008198  83 C  s         
   802     -1.007089  88 C  s               682      0.912961  76 C  s         

 Vector  849  Occ=0.000000D+00  E= 6.334788D+01
              MO Center=  3.1D-02, -7.8D-01, -2.7D-01, r^2= 1.7D+01
   Bfn.  Coefficient  Atom+Function         Bfn.  Coefficient  Atom+Function  
  ----- ------------  ---------------      ----- ------------  ---------------
   769      1.424912  85 C  s               773      1.425099  85 C  s         
   356     -1.195798  26 C  s               266      1.163184  20 C  s         
   770     -1.111229  85 C  s               142      1.059757   8 C  py        
   352     -1.062258  26 C  s               326     -1.004950  24 C  s         
   262      0.948278  20 C  s               322     -0.938963  24 C  s         

 Vector  850  Occ=0.000000D+00  E= 6.335768D+01
              MO Center=  7.0D-01, -1.6D+00, -9.4D-01, r^2= 1.3D+01
   Bfn.  Coefficient  Atom+Function         Bfn.  Coefficient  Atom+Function  
  ----- ------------  ---------------      ----- ------------  ---------------
   773      1.517920  85 C  s               769      1.462202  85 C  s         
   770     -1.140104  85 C  s               758     -1.035911  84 C  s         
   754     -0.983640  84 C  s               356      0.972848  26 C  s         
     6      0.923060   1 C  s               266     -0.903457  20 C  s         
   739     -0.903636  83 C  s               772     -0.892752  85 C  s         

 Vector  851  Occ=0.000000D+00  E= 6.340740D+01
              MO Center= -1.3D+00,  9.3D-02,  4.1D-01, r^2= 1.2D+01
   Bfn.  Coefficient  Atom+Function         Bfn.  Coefficient  Atom+Function  
  ----- ------------  ---------------      ----- ------------  ---------------
   185      1.934409  13 C  s               143      1.531765   8 C  pz        
   200     -1.465561  14 C  s               221     -1.463716  17 C  s         
   181      1.403493  13 C  s               173      1.360369  10 C  pz        
   236      1.310994  18 C  s               196     -1.226648  14 C  s         
   217     -1.179040  17 C  s               232      1.122643  18 C  s         

 Vector  852  Occ=0.000000D+00  E= 6.342368D+01
              MO Center= -1.5D+00, -1.5D+00,  7.7D-01, r^2= 9.8D+00
   Bfn.  Coefficient  Atom+Function         Bfn.  Coefficient  Atom+Function  
  ----- ------------  ---------------      ----- ------------  ---------------
   134      2.902861   8 C  s               130      1.745170   8 C  s         
   142     -1.445433   8 C  py              131     -1.376122   8 C  s         
   281     -1.279352  21 C  s               251     -1.256606  19 C  s         
   133     -1.231673   8 C  s               277     -1.128577  21 C  s         
   247     -1.118883  19 C  s               194     -1.098271  13 C  pz        

 Vector  853  Occ=0.000000D+00  E= 6.342579D+01
              MO Center= -1.3D+00,  4.9D-01,  2.6D-01, r^2= 1.3D+01
   Bfn.  Coefficient  Atom+Function         Bfn.  Coefficient  Atom+Function  
  ----- ------------  ---------------      ----- ------------  ---------------
   200      1.544716  14 C  s               245      1.451646  18 C  pz        
   209     -1.402794  14 C  pz              134     -1.390939   8 C  s         
   143     -1.289702   8 C  pz              164     -1.247455  10 C  s         
   173      1.247329  10 C  pz              356      1.203718  26 C  s         
   236      1.146806  18 C  s               196      1.030869  14 C  s         

 Vector  854  Occ=0.000000D+00  E= 6.344221D+01
              MO Center= -5.2D-01,  2.8D+00, -2.4D-01, r^2= 7.2D+00
   Bfn.  Coefficient  Atom+Function         Bfn.  Coefficient  Atom+Function  
  ----- ------------  ---------------      ----- ------------  ---------------
   164      2.722196  10 C  s               160      1.698088  10 C  s         
   221     -1.519421  17 C  s               161     -1.341002  10 C  s         
   230      1.319517  17 C  pz              163     -1.208021  10 C  s         
   171      1.154815  10 C  px              311     -1.113290  23 C  s         
   172      1.105689  10 C  py              341     -1.090808  25 C  s         

 Vector  855  Occ=0.000000D+00  E= 6.355705D+01
              MO Center=  3.0D+00, -8.9D-01, -9.8D-02, r^2= 8.8D+00
   Bfn.  Coefficient  Atom+Function         Bfn.  Coefficient  Atom+Function  
  ----- ------------  ---------------      ----- ------------  ---------------
   701      2.129874  77 C  s               716     -2.106331  78 C  s         
   671      1.941816  75 C  s               686     -1.881477  76 C  s         
   653      1.854253  73 C  s               638     -1.777457  72 C  s         
   806     -1.413167  88 C  s               743     -1.379843  83 C  s         
   824      1.380190  90 C  s               773      1.342443  85 C  s         

 Vector  856  Occ=0.000000D+00  E= 6.356820D+01
              MO Center=  2.7D+00, -2.0D+00, -5.9D-01, r^2= 8.0D+00
   Bfn.  Coefficient  Atom+Function         Bfn.  Coefficient  Atom+Function  
  ----- ------------  ---------------      ----- ------------  ---------------
   743      2.233755  83 C  s               773     -2.005319  85 C  s         
   806      1.912436  88 C  s               824     -1.855160  90 C  s         
   758     -1.839171  84 C  s               788      1.819934  86 C  s         
   716     -1.784167  78 C  s               701      1.700386  77 C  s         
   671      1.426491  75 C  s               653      1.408719  73 C  s         

 Vector  857  Occ=0.000000D+00  E= 6.359321D+01
              MO Center= -1.8D+00, -2.7D+00,  1.0D+00, r^2= 3.3D+00
   Bfn.  Coefficient  Atom+Function         Bfn.  Coefficient  Atom+Function  
  ----- ------------  ---------------      ----- ------------  ---------------
   134      3.562649   8 C  s               185     -3.121425  13 C  s         
   200     -2.998799  14 C  s               281      2.798444  21 C  s         
   251      2.678007  19 C  s               371     -2.539694  27 C  s         
   142     -2.352649   8 C  py              194     -1.732749  13 C  pz        
   209      1.633999  14 C  pz              130      1.357455   8 C  s         

 Vector  858  Occ=0.000000D+00  E= 6.360074D+01
              MO Center= -2.4D-01,  3.6D+00, -3.1D-01, r^2= 3.0D+00
   Bfn.  Coefficient  Atom+Function         Bfn.  Coefficient  Atom+Function  
  ----- ------------  ---------------      ----- ------------  ---------------
   164      3.678733  10 C  s               236     -3.137277  18 C  s         
   221     -2.985049  17 C  s               311      2.662854  23 C  s         
   341      2.672626  25 C  s               458     -2.501567  36 C  s         
   230      2.112527  17 C  pz              172      1.938272  10 C  py        
   243     -1.562353  18 C  px              350      1.504330  25 C  pz        

 Vector  859  Occ=0.000000D+00  E= 8.881891D+01
              MO Center= -1.6D+00,  3.8D-01,  6.0D-01, r^2= 2.4D+00
   Bfn.  Coefficient  Atom+Function         Bfn.  Coefficient  Atom+Function  
  ----- ------------  ---------------      ----- ------------  ---------------
    85      2.228320   5 N  s               142     -1.996018   8 C  py        
   100     -1.821324   6 N  s                86     -1.736182   5 N  s         
    89      1.600568   5 N  s               101      1.418993   6 N  s         
   104     -1.345280   6 N  s               172     -1.349564  10 C  py        
    84      1.308617   5 N  s                87      1.229374   5 N  s         

 Vector  860  Occ=0.000000D+00  E= 8.886408D+01
              MO Center= -1.1D+00,  6.4D-01,  1.1D-01, r^2= 4.2D+00
   Bfn.  Coefficient  Atom+Function         Bfn.  Coefficient  Atom+Function  
  ----- ------------  ---------------      ----- ------------  ---------------
   100      2.283142   6 N  s               101     -1.783641   6 N  s         
   104      1.614518   6 N  s                85      1.380395   5 N  s         
   619      1.348689  71 N  s                99      1.339492   6 N  s         
   102      1.276819   6 N  s               103     -1.239527   6 N  s         
   172      1.138832  10 C  py               86     -1.078552   5 N  s         

 Vector  861  Occ=0.000000D+00  E= 8.887259D+01
              MO Center=  7.7D-02, -1.1D+00, -1.2D+00, r^2= 4.0D+00
   Bfn.  Coefficient  Atom+Function         Bfn.  Coefficient  Atom+Function  
  ----- ------------  ---------------      ----- ------------  ---------------
   619      2.539179  71 N  s               620     -1.974652  71 N  s         
   623      1.566254  71 N  s               618      1.492278  71 N  s         
    85     -1.436566   5 N  s               621      1.385858  71 N  s         
   622     -1.306957  71 N  s                86      1.122788   5 N  s         
    89     -1.082536   5 N  s               142      0.925220   8 C  py        

 Vector  862  Occ=0.000000D+00  E= 1.171449D+02
              MO Center=  1.0D-01, -4.1D-01, -8.3D-01, r^2= 3.9D-02
   Bfn.  Coefficient  Atom+Function         Bfn.  Coefficient  Atom+Function  
  ----- ------------  ---------------      ----- ------------  ---------------
    38      0.890950   3 Ni pz               36      0.420683   3 Ni px        
    37     -0.403821   3 Ni py               35     -0.374123   3 Ni s         
    41     -0.340620   3 Ni pz               45     -0.327921   3 Ni px        
   725     -0.267440  78 C  pz              731      0.267694  80 H  s         
   782     -0.215762  85 C  pz              236      0.210420  18 C  s         

 Vector  863  Occ=0.000000D+00  E= 1.172233D+02
              MO Center=  9.9D-02, -4.1D-01, -8.3D-01, r^2= 3.5D-02
   Bfn.  Coefficient  Atom+Function         Bfn.  Coefficient  Atom+Function  
  ----- ------------  ---------------      ----- ------------  ---------------
    37      0.974836   3 Ni py               40     -0.378057   3 Ni py        
   142      0.332792   8 C  py               36      0.315548   3 Ni px        
   172     -0.303634  10 C  py               38      0.293332   3 Ni pz        
    74     -0.271887   4 C  s               686      0.255798  76 C  s         
   708     -0.249687  77 C  px              173      0.238534  10 C  pz        

 Vector  864  Occ=0.000000D+00  E= 1.172594D+02
              MO Center=  9.8D-02, -4.2D-01, -8.3D-01, r^2= 3.5D-02
   Bfn.  Coefficient  Atom+Function         Bfn.  Coefficient  Atom+Function  
  ----- ------------  ---------------      ----- ------------  ---------------
    36      0.927215   3 Ni px               38     -0.504978   3 Ni pz        
    35     -0.468691   3 Ni s                39     -0.361917   3 Ni px        
    82     -0.238559   4 C  py              686      0.233965  76 C  s         
    81      0.213053   4 C  px               42      0.206596   3 Ni px        
   709     -0.207300  77 C  py              708     -0.205343  77 C  px        

 Vector  865  Occ=0.000000D+00  E= 1.186726D+02
              MO Center=  1.3D+00,  1.6D+00, -2.1D+00, r^2= 5.9D-02
   Bfn.  Coefficient  Atom+Function         Bfn.  Coefficient  Atom+Function  
  ----- ------------  ---------------      ----- ------------  ---------------
    17      2.979014   2 O  s                18     -2.299972   2 O  s         
    16     -1.757157   2 O  s                19      1.514255   2 O  s         
    20     -1.251387   2 O  s                21      1.035911   2 O  s         
     6     -0.653984   1 C  s                14     -0.496455   1 C  py        
    34     -0.480081   3 Ni s                15      0.338122   1 C  pz        

 Vector  866  Occ=0.000000D+00  E= 6.702772D+02
              MO Center=  9.9D-02, -4.2D-01, -8.3D-01, r^2= 2.5D-02
   Bfn.  Coefficient  Atom+Function         Bfn.  Coefficient  Atom+Function  
  ----- ------------  ---------------      ----- ------------  ---------------
    32     28.683095   3 Ni s                33    -15.124491   3 Ni s         
    51     -7.282328   3 Ni dxx              54     -7.281944   3 Ni dyy       
    56     -7.282879   3 Ni dzz              31     -4.261310   3 Ni s         
    57      3.299396   3 Ni dxx              60      3.298130   3 Ni dyy       
    62      3.301344   3 Ni dzz              34      0.902311   3 Ni s         


 center of mass
 --------------
 x =   0.05533753 y =  -0.02003808 z =  -0.03682570

 moments of inertia (a.u.)
 ------------------
       25495.495622880077           0.000000000000          -0.000000000001
           0.000000000000       20603.365328371841           0.000000000001
          -0.000000000001           0.000000000001       29266.392160331667

     Multipole analysis of the density
     ---------------------------------

     L   x y z        total         alpha         beta         nuclear
     -   - - -        -----         -----         ----         -------
     0   0 0 0     -0.000000   -172.000000   -172.000000    344.000000

     1   1 0 0     -1.727511      0.066453      0.066453     -1.860417
     1   0 1 0      0.903416     -3.474889     -3.474889      7.853194
     1   0 0 1      1.953683     -6.869337     -6.869337     15.692358

     2   2 0 0   -206.351740  -3505.824096  -3505.824096   6805.296453
     2   1 1 0      4.820618      3.512943      3.512943     -2.205267
     2   1 0 1      3.261648    -45.983771    -45.983771     95.229190
     2   0 2 0   -212.858241  -4806.510616  -4806.510616   9400.162992
     2   0 1 1     -2.801099      3.150393      3.150393     -9.101886
     2   0 0 2   -210.729627  -2541.010438  -2541.010438   4871.291249


 Task  times  cpu:     1577.9s     wall:     1577.9s


                                NWChem Input Module
                                -------------------


 Summary of allocated global arrays
-----------------------------------
  No active global arrays


MA_summarize_allocated_blocks: starting scan ...
heap block 'gridpts', handle 115, address 0x5edc584b82a0:
	type of elements:		double precision
	number of elements:		203677164
	address of client space:	0x5edc584b8300
	index for client space:		113340731
	total number of bytes:		1629417416
MA_summarize_allocated_blocks: scan completed: 1 heap block, 0 stack blocks
MA usage statistics:

	allocation statistics:
					      heap	     stack
					      ----	     -----
	current number of blocks	         1	         0
	maximum number of blocks	        37	        58
	current total bytes		1629417416	         0
	maximum total bytes		1649038120	  55345448
	maximum total K-bytes		   1649039	     55346
	maximum total M-bytes		      1650	        56


                                     CITATION
                                     --------
                Please cite the following reference when publishing
                           results obtained with NWChem:

          E. Apra, E. J. Bylaska, W. A. de Jong, N. Govind, K. Kowalski,
       T. P. Straatsma, M. Valiev, H. J. J. van Dam, Y. Alexeev, J. Anchell,
       V. Anisimov, F. W. Aquino, R. Atta-Fynn, J. Autschbach, N. P. Bauman,
     J. C. Becca, D. E. Bernholdt, K. Bhaskaran-Nair, S. Bogatko, P. Borowski,
         J. Boschen, J. Brabec, A. Bruner, E. Cauet, Y. Chen, G. N. Chuev,
      C. J. Cramer, J. Daily, M. J. O. Deegan, T. H. Dunning Jr., M. Dupuis,
   K. G. Dyall, G. I. Fann, S. A. Fischer, A. Fonari, H. Fruchtl, L. Gagliardi,
      J. Garza, N. Gawande, S. Ghosh, K. Glaesemann, A. W. Gotz, J. Hammond,
       V. Helms, E. D. Hermes, K. Hirao, S. Hirata, M. Jacquelin, L. Jensen,
   B. G. Johnson, H. Jonsson, R. A. Kendall, M. Klemm, R. Kobayashi, V. Konkov,
      S. Krishnamoorthy, M. Krishnan, Z. Lin, R. D. Lins, R. J. Littlefield,
      A. J. Logsdail, K. Lopata, W. Ma, A. V. Marenich, J. Martin del Campo,
   D. Mejia-Rodriguez, J. E. Moore, J. M. Mullin, T. Nakajima, D. R. Nascimento,
    J. A. Nichols, P. J. Nichols, J. Nieplocha, A. Otero-de-la-Roza, B. Palmer,
    A. Panyala, T. Pirojsirikul, B. Peng, R. Peverati, J. Pittner, L. Pollack,
   R. M. Richard, P. Sadayappan, G. C. Schatz, W. A. Shelton, D. W. Silverstein,
   D. M. A. Smith, T. A. Soares, D. Song, M. Swart, H. L. Taylor, G. S. Thomas,
            V. Tipparaju, D. G. Truhlar, K. Tsemekhman, T. Van Voorhis,
      A. Vazquez-Mayagoitia, P. Verma, O. Villa, A. Vishnu, K. D. Vogiatzis,
        D. Wang, J. H. Weare, M. J. Williamson, T. L. Windus, K. Wolinski,
        A. T. Wong, Q. Wu, C. Yang, Q. Yu, M. Zacharias, Z. Zhang, Y. Zhao,
                                and R. J. Harrison
                        "NWChem: Past, present, and future
                         J. Chem. Phys. 152, 184102 (2020)
                               doi:10.1063/5.0004997

                                      AUTHORS
                                      -------
  E. Apra, E. J. Bylaska, N. Govind, K. Kowalski, M. Valiev, D. Mejia-Rodriguez,
       A. Kunitsa, N. P. Bauman, A. Panyala, W. A. de Jong, T. P. Straatsma,
   H. J. J. van Dam, D. Wang, T. L. Windus, J. Hammond, J. Autschbach, A. Woods,
    K. Bhaskaran-Nair, J. Brabec, K. Lopata, S. A. Fischer, S. Krishnamoorthy,
     M. Jacquelin, W. Ma, M. Klemm, O. Villa, Y. Chen, V. Anisimov, F. Aquino,
     S. Hirata, M. T. Hackler, E. Hermes, L. Jensen, J. E. Moore, J. C. Becca,
      V. Konjkov, T. Risthaus, M. Malagoli, A. Marenich, A. Otero-de-la-Roza,
        J. Mullin, P. Nichols, R. Peverati, J. Pittner, Y. Zhao, P.-D. Fan,
        A. Fonari, M. J. Williamson, R. J. Harrison, J. R. Rehr, M. Dupuis,
     D. Silverstein, D. M. A. Smith, J. Nieplocha, V. Tipparaju, M. Krishnan,
     B. E. Van Kuiken, A. Vazquez-Mayagoitia, M. Swart, Q. Wu, T. Van Voorhis,
     A. A. Auer, M. Nooijen, L. D. Crosby, E. Brown, G. Cisneros, G. I. Fann,
   H. Fruchtl, J. Garza, K. Hirao, R. A. Kendall, J. A. Nichols, K. Tsemekhman,
    K. Wolinski, J. Anchell, D. E. Bernholdt, P. Borowski, T. Clark, D. Clerc,
   H. Dachsel, M. J. O. Deegan, K. Dyall, D. Elwood, E. Glendening, M. Gutowski,
   A. C. Hess, J. Jaffe, B. G. Johnson, J. Ju, R. Kobayashi, R. Kutteh, Z. Lin,
   R. Littlefield, X. Long, B. Meng, T. Nakajima, S. Niu, L. Pollack, M. Rosing,
   K. Glaesemann, G. Sandrone, M. Stave, H. Taylor, G. Thomas, J. H. van Lenthe,
                               A. T. Wong, Z. Zhang.

 Total times  cpu:     1578.4s     wall:     1578.4s
