 argument  1 = nwchem.in
  NWChem w/ OpenMP: maximum threads =    1
                                         
                                         


             Northwest Computational Chemistry Package (NWChem) 7.2.3
             --------------------------------------------------------


                    Environmental Molecular Sciences Laboratory
                       Pacific Northwest National Laboratory
                                Richland, WA 99352

                              Copyright (c) 1994-2022
                       Pacific Northwest National Laboratory
                            Battelle Memorial Institute

             NWChem is an open-source computational chemistry package
                        distributed under the terms of the
                      Educational Community License (ECL) 2.0
             A copy of the license is included with this distribution
                              in the LICENSE.TXT file

                                  ACKNOWLEDGMENT
                                  --------------

            This software and its documentation were developed at the
            EMSL at Pacific Northwest National Laboratory, a multiprogram
            national laboratory, operated for the U.S. Department of Energy
            by Battelle under Contract Number DE-AC05-76RL01830. Support
            for this work was provided by the Department of Energy Office
            of Biological and Environmental Research, Office of Basic
            Energy Sciences, and the Office of Advanced Scientific Computing.


           Job information
           ---------------

    hostname        = bd237af4af14
    program         = nwchem
    date            = Wed Jul  2 23:37:07 2025

    compiled        = Fri_May_02_22:05:35_2025
    source          = /opt/nwchem
    nwchem branch   = 7.2.3
    nwchem revision = N/A
    ga revision     = 5.9.1
    use scalapack   = T
    input           = nwchem.in
    prefix          = ni_singlepoint.
    data base       = ./ni_singlepoint.db
    status          = startup
    nproc           =        5
    time left       =     -1s



           Memory information
           ------------------

    heap     =    509724444 doubles =     3888.9 Mbytes
    stack    =    509724445 doubles =     3888.9 Mbytes
    global   =    291271111 doubles =     2222.2 Mbytes (distinct from heap & stack)
    total    =   1310720000 doubles =    10000.0 Mbytes
    verify   = yes
    hardfail = no 


           Directory information
           ---------------------

  0 permanent = .
  0 scratch   = .




                                NWChem Input Module
                                -------------------


                          Ni complex single-point energy
                          ------------------------------

 Scaling coordinates for geometry "geometry" by  1.889725989
 (inverse scale =  0.529177249)

 C1  symmetry detected

          ------
          auto-z
          ------
  no constraints, skipping    0.0000000000000000     
  no constraints, skipping    0.0000000000000000     


                             Geometry "geometry" -> ""
                             -------------------------

 Output coordinates in angstroms (scale by  1.889725989 to convert to a.u.)

  No.       Tag          Charge          X              Y              Z
 ---- ---------------- ---------- -------------- -------------- --------------
    1 C                    6.0000     1.54257254     0.53733364    -1.31636948
    2 O                    8.0000     1.38535935     1.29670832    -2.25840254
    3 Ni                  28.0000     0.08577424    -0.44450311    -0.71703358
    4 C                    6.0000    -1.23141448     0.41823208     0.30358941
    5 N                    7.0000    -2.17222996    -0.36012528     0.87019989
    6 N                    7.0000    -1.58291913     1.68701030     0.52664126
    7 C                    6.0000    -3.21186152     0.38012201     1.58364610
    8 C                    6.0000    -2.07218630    -1.78343091     0.87009070
    9 C                    6.0000    -2.88724661     1.82424905     1.18403049
   10 C                    6.0000    -0.85337104     2.83308313     0.08100725
   11 H                    1.0000    -4.20456856     0.06379220     1.25971921
   12 H                    1.0000    -3.13424709     0.21364407     2.66188595
   13 C                    6.0000    -2.63278395    -2.49899362    -0.19415597
   14 C                    6.0000    -1.40746920    -2.42074213     1.92481707
   15 H                    1.0000    -3.61654393     2.23372686     0.48034894
   16 H                    1.0000    -2.82010384     2.49936149     2.03746110
   17 C                    6.0000    -0.03327295     3.49135684     1.00154046
   18 C                    6.0000    -1.00169435     3.27300800    -1.23766843
   19 C                    6.0000    -2.48527717    -3.88250918    -0.20014268
   20 C                    6.0000    -3.40269777    -1.81088863    -1.30407264
   21 C                    6.0000    -1.29636669    -3.80584434     1.88491532
   22 C                    6.0000    -0.82420228    -1.64317661     3.08819687
   23 C                    6.0000     0.67770774     4.60239140     0.56285492
   24 C                    6.0000     0.08192260     3.04083230     2.44535795
   25 C                    6.0000    -0.27086029     4.38686496    -1.63268509
   26 C                    6.0000    -1.96591412     2.60875693    -2.20165884
   27 C                    6.0000    -1.82145303    -4.53071727     0.82709565
   28 H                    1.0000    -2.89615578    -4.45978576    -1.01930471
   29 C                    6.0000    -4.87614849    -2.22546267    -1.27126336
   30 C                    6.0000    -2.78136320    -2.07884578    -2.67478025
   31 H                    1.0000    -3.35218649    -0.73476518    -1.12781681
   32 H                    1.0000    -0.78131721    -4.32410771     2.68475636
   33 C                    6.0000     0.66836895    -1.92151207     3.26299647
   34 C                    6.0000    -1.59355919    -1.94578450     4.37634763
   35 H                    1.0000    -0.92768896    -0.57873593     2.86827185
   36 C                    6.0000     0.56529845     5.04251535    -0.74469456
   37 H                    1.0000     1.33066607     5.12538416     1.25129120
   38 C                    6.0000    -0.46148259     4.10942695     3.39791955
   39 C                    6.0000     1.51973362     2.66859070     2.80311931
   40 H                    1.0000    -0.52476747     2.14039857     2.56688257
   41 H                    1.0000    -0.35072482     4.74256696    -2.65189726
   42 C                    6.0000    -1.34930120     2.35122015    -3.57625429
   43 C                    6.0000    -3.23632105     3.45524937    -2.33915966
   44 H                    1.0000    -2.24162252     1.63834174    -1.78236319
   45 H                    1.0000    -1.71223320    -5.60758001     0.80371400
   46 H                    1.0000    -5.32471068    -2.02117388    -0.29703439
   47 H                    1.0000    -4.98685017    -3.29359739    -1.46899514
   48 H                    1.0000    -5.44266391    -1.68347832    -2.03048461
   49 H                    1.0000    -1.73714883    -1.76054603    -2.69949419
   50 H                    1.0000    -3.32384119    -1.53465894    -3.45017270
   51 H                    1.0000    -2.81790303    -3.14106531    -2.92586022
   52 H                    1.0000     1.21375930    -1.69847389     2.34657504
   53 H                    1.0000     0.85176205    -2.96632843     3.52249052
   54 H                    1.0000     1.07792092    -1.30208640     4.06317777
   55 H                    1.0000    -2.65986050    -1.74003922     4.26387637
   56 H                    1.0000    -1.21130606    -1.34363543     5.20242539
   57 H                    1.0000    -1.48826641    -2.99766035     4.65059728
   58 H                    1.0000     1.13152008     5.90479265    -1.07397717
   59 H                    1.0000    -1.49334822     4.37572428     3.15948782
   60 H                    1.0000     0.13513539     5.02196796     3.33857587
   61 H                    1.0000    -0.42674828     3.75540446     4.43026098
   62 H                    1.0000     1.90266016     1.89815365     2.13483620
   63 H                    1.0000     1.57272602     2.29671550     3.82907166
   64 H                    1.0000     2.18088778     3.53447600     2.72810931
   65 H                    1.0000    -0.40541893     1.81834518    -3.47897384
   66 H                    1.0000    -1.16359580     3.28691673    -4.10858227
   67 H                    1.0000    -2.03902570     1.76318083    -4.18610778
   68 H                    1.0000    -3.71092009     3.64557620    -1.37444507
   69 H                    1.0000    -3.96004732     2.95774823    -2.98815683
   70 H                    1.0000    -2.99701160     4.42432883    -2.78312153
   71 N                    7.0000     1.35634260    -1.22495543    -1.83420175
   72 C                    6.0000     4.70629664     1.41716551     1.45187556
   73 C                    6.0000     4.37310295     2.29618955     0.43021004
   74 H                    1.0000     4.27817765    -0.47777311     2.36564478
   75 C                    6.0000     4.02584925     0.21254235     1.57010308
   76 C                    6.0000     3.36656832     1.97203945    -0.46649314
   77 C                    6.0000     2.67727581     0.76656662    -0.34970543
   78 C                    6.0000     3.01216142    -0.10692057     0.67864892
   79 H                    1.0000     3.08825398     2.64597698    -1.26588099
   80 H                    1.0000     2.48257843    -1.04212486     0.78236406
   81 H                    1.0000     5.48855711     1.67215534     2.15589814
   82 H                    1.0000     4.89722821     3.23912262     0.33237371
   83 C                    6.0000     2.14506337    -2.31374203    -1.39082271
   84 C                    6.0000     3.40011799    -2.56820206    -1.94557576
   85 C                    6.0000     1.66750709    -3.17514857    -0.40347719
   86 C                    6.0000     4.14979718    -3.65590085    -1.52659728
   87 H                    1.0000     3.78769715    -1.90139055    -2.70549030
   88 C                    6.0000     2.42628441    -4.25411008     0.02668731
   89 H                    1.0000     0.68337557    -2.99468707     0.01847001
   90 C                    6.0000     3.66984648    -4.50412953    -0.53684228
   91 H                    1.0000     5.11847495    -3.84102352    -1.97408892
   92 H                    1.0000     2.03456434    -4.91156473     0.79397393
   93 H                    1.0000     4.25729745    -5.35400740    -0.21438108
   94 C                    6.0000     1.09913221    -1.24351068    -3.27147913
   95 H                    1.0000     2.00719972    -1.08486613    -3.86051017
   96 H                    1.0000     0.66307769    -2.20478715    -3.55923361
   97 H                    1.0000     0.40424128    -0.44793075    -3.52739400

      Atomic Mass 
      ----------- 

      C                 12.000000
      O                 15.994910
      Ni                57.935300
      N                 14.003070
      H                  1.007825


 Effective nuclear repulsion energy (a.u.)    7267.0613668123

            Nuclear Dipole moment (a.u.) 
            ----------------------------
        X                 Y               Z
 ---------------- ---------------- ----------------
     0.0000000000     0.0000000000     0.0000000000



                                Z-matrix (autoz)
                                -------- 

 Units are Angstrom for bonds and degrees for angles

      Type          Name      I     J     K     L     M      Value
      ----------- --------  ----- ----- ----- ----- ----- ----------
    1 Stretch                  1     2                       1.22016
    2 Stretch                  1     3                       1.85620
    3 Stretch                  1    77                       1.50816
    4 Stretch                  3     4                       1.87642
    5 Stretch                  3    71                       1.86320
    6 Stretch                  4     5                       1.34611
    7 Stretch                  4     6                       1.33533
    8 Stretch                  5     7                       1.46212
    9 Stretch                  5     8                       1.42682
   10 Stretch                  6     9                       1.46706
   11 Stretch                  6    10                       1.42979
   12 Stretch                  7     9                       1.53316
   13 Stretch                  7    11                       1.09108
   14 Stretch                  7    12                       1.09377
   15 Stretch                  8    13                       1.39961
   16 Stretch                  8    14                       1.40017
   17 Stretch                  9    15                       1.09303
   18 Stretch                  9    16                       1.09024
   19 Stretch                 10    17                       1.39759
   20 Stretch                 10    18                       1.39801
   21 Stretch                 13    19                       1.39137
   22 Stretch                 13    20                       1.51597
   23 Stretch                 14    21                       1.39012
   24 Stretch                 14    22                       1.51600
   25 Stretch                 17    23                       1.39009
   26 Stretch                 17    24                       1.51686
   27 Stretch                 18    25                       1.38954
   28 Stretch                 18    26                       1.51665
   29 Stretch                 19    27                       1.38422
   30 Stretch                 19    28                       1.08310
   31 Stretch                 20    29                       1.53101
   32 Stretch                 20    30                       1.52863
   33 Stretch                 20    31                       1.09163
   34 Stretch                 21    27                       1.38569
   35 Stretch                 21    32                       1.08334
   36 Stretch                 22    33                       1.52833
   37 Stretch                 22    34                       1.53063
   38 Stretch                 22    35                       1.09184
   39 Stretch                 23    36                       1.38421
   40 Stretch                 23    37                       1.08343
   41 Stretch                 24    38                       1.53119
   42 Stretch                 24    39                       1.52770
   43 Stretch                 24    40                       1.09253
   44 Stretch                 25    36                       1.38476
   45 Stretch                 25    41                       1.08245
   46 Stretch                 26    42                       1.52841
   47 Stretch                 26    43                       1.53277
   48 Stretch                 26    44                       1.09249
   49 Stretch                 27    45                       1.08264
   50 Stretch                 29    46                       1.09182
   51 Stretch                 29    47                       1.09191
   52 Stretch                 29    48                       1.09138
   53 Stretch                 30    49                       1.09193
   54 Stretch                 30    50                       1.09163
   55 Stretch                 30    51                       1.09210
   56 Stretch                 33    52                       1.08951
   57 Stretch                 33    53                       1.09207
   58 Stretch                 33    54                       1.09166
   59 Stretch                 34    55                       1.09178
   60 Stretch                 34    56                       1.09138
   61 Stretch                 34    57                       1.09213
   62 Stretch                 36    58                       1.08285
   63 Stretch                 38    59                       1.09202
   64 Stretch                 38    60                       1.09188
   65 Stretch                 38    61                       1.09191
   66 Stretch                 39    62                       1.08941
   67 Stretch                 39    63                       1.09256
   68 Stretch                 39    64                       1.09202
   69 Stretch                 42    65                       1.08827
   70 Stretch                 42    66                       1.09242
   71 Stretch                 42    67                       1.09244
   72 Stretch                 43    68                       1.09185
   73 Stretch                 43    69                       1.09201
   74 Stretch                 43    70                       1.09247
   75 Stretch                 71    83                       1.41567
   76 Stretch                 71    94                       1.46023
   77 Stretch                 72    73                       1.38834
   78 Stretch                 72    75                       1.38856
   79 Stretch                 72    81                       1.08287
   80 Stretch                 73    76                       1.38646
   81 Stretch                 73    82                       1.08324
   82 Stretch                 74    75                       1.08309
   83 Stretch                 75    78                       1.38720
   84 Stretch                 76    77                       1.39353
   85 Stretch                 76    79                       1.08198
   86 Stretch                 77    78                       1.39019
   87 Stretch                 78    80                       1.07973
   88 Stretch                 83    84                       1.39559
   89 Stretch                 83    85                       1.39461
   90 Stretch                 84    86                       1.38588
   91 Stretch                 84    87                       1.08274
   92 Stretch                 85    88                       1.38742
   93 Stretch                 85    89                       1.08587
   94 Stretch                 86    90                       1.38905
   95 Stretch                 86    91                       1.08298
   96 Stretch                 88    90                       1.38799
   97 Stretch                 88    92                       1.08371
   98 Stretch                 90    93                       1.08230
   99 Stretch                 94    95                       1.09394
  100 Stretch                 94    96                       1.09407
  101 Stretch                 94    97                       1.08688
  102 Bend                     1     3     4               118.90432
  103 Bend                     1     3    71                59.52039
  104 Bend                     1    77    76               116.73860
  105 Bend                     1    77    78               124.04666
  106 Bend                     2     1     3               118.51298
  107 Bend                     2     1    77               119.81498
  108 Bend                     3     1    77               117.64108
  109 Bend                     3     4     5               116.98180
  110 Bend                     3     4     6               135.43858
  111 Bend                     3    71    83               120.95026
  112 Bend                     3    71    94               118.38393
  113 Bend                     4     5     7               114.17979
  114 Bend                     4     5     8               121.85456
  115 Bend                     4     6     9               113.43883
  116 Bend                     4     6    10               125.11635
  117 Bend                     5     4     6               107.16468
  118 Bend                     5     7     9               101.48724
  119 Bend                     5     7    11               110.81083
  120 Bend                     5     7    12               110.70202
  121 Bend                     5     8    13               118.81431
  122 Bend                     5     8    14               119.16183
  123 Bend                     6     9     7               102.52854
  124 Bend                     6     9    15               109.86328
  125 Bend                     6     9    16               110.72856
  126 Bend                     6    10    17               118.14227
  127 Bend                     6    10    18               119.47802
  128 Bend                     7     5     8               123.70586
  129 Bend                     7     9    15               112.29674
  130 Bend                     7     9    16               113.09638
  131 Bend                     8    13    19               117.98106
  132 Bend                     8    13    20               121.87541
  133 Bend                     8    14    21               118.02423
  134 Bend                     8    14    22               121.82095
  135 Bend                     9     6    10               121.22006
  136 Bend                     9     7    11               112.85149
  137 Bend                     9     7    12               112.66171
  138 Bend                    10    17    23               117.95116
  139 Bend                    10    17    24               122.11430
  140 Bend                    10    18    25               117.68368
  141 Bend                    10    18    26               121.94906
  142 Bend                    11     7    12               108.24640
  143 Bend                    13     8    14               122.02116
  144 Bend                    13    19    27               120.88324
  145 Bend                    13    19    28               119.53899
  146 Bend                    13    20    29               110.49793
  147 Bend                    13    20    30               111.74739
  148 Bend                    13    20    31               107.80282
  149 Bend                    14    21    27               120.85385
  150 Bend                    14    21    32               119.56908
  151 Bend                    14    22    33               111.72173
  152 Bend                    14    22    34               110.55112
  153 Bend                    14    22    35               107.99862
  154 Bend                    15     9    16               108.24391
  155 Bend                    17    10    18               122.36551
  156 Bend                    17    23    36               120.71059
  157 Bend                    17    23    37               119.57335
  158 Bend                    17    24    38               110.97234
  159 Bend                    17    24    39               111.51552
  160 Bend                    17    24    40               107.96847
  161 Bend                    18    25    36               120.98585
  162 Bend                    18    25    41               119.49035
  163 Bend                    18    26    42               112.88925
  164 Bend                    18    26    43               110.00343
  165 Bend                    18    26    44               107.79029
  166 Bend                    19    13    20               120.13459
  167 Bend                    19    27    21               120.21690
  168 Bend                    19    27    45               119.87697
  169 Bend                    20    29    46               111.33676
  170 Bend                    20    29    47               111.01297
  171 Bend                    20    29    48               110.49868
  172 Bend                    20    30    49               110.97136
  173 Bend                    20    30    50               110.33764
  174 Bend                    20    30    51               111.28769
  175 Bend                    21    14    22               120.15430
  176 Bend                    21    27    45               119.90613
  177 Bend                    22    33    52               110.81717
  178 Bend                    22    33    53               111.43327
  179 Bend                    22    33    54               110.29699
  180 Bend                    22    34    55               111.52819
  181 Bend                    22    34    56               110.60221
  182 Bend                    22    34    57               110.68868
  183 Bend                    23    17    24               119.92940
  184 Bend                    23    36    25               120.28056
  185 Bend                    23    36    58               119.86642
  186 Bend                    24    38    59               111.69674
  187 Bend                    24    38    60               110.82585
  188 Bend                    24    38    61               110.52438
  189 Bend                    24    39    62               111.06834
  190 Bend                    24    39    63               110.39514
  191 Bend                    24    39    64               111.13264
  192 Bend                    25    18    26               120.31591
  193 Bend                    25    36    58               119.85281
  194 Bend                    26    42    65               110.61088
  195 Bend                    26    42    66               111.25420
  196 Bend                    26    42    67               109.75836
  197 Bend                    26    43    68               112.16507
  198 Bend                    26    43    69               110.54956
  199 Bend                    26    43    70               110.16865
  200 Bend                    27    19    28               119.57775
  201 Bend                    27    21    32               119.57223
  202 Bend                    29    20    30               111.28043
  203 Bend                    29    20    31               107.93926
  204 Bend                    30    20    31               107.38408
  205 Bend                    33    22    34               111.01560
  206 Bend                    33    22    35               107.04661
  207 Bend                    34    22    35               108.33770
  208 Bend                    36    23    37               119.71522
  209 Bend                    36    25    41               119.52211
  210 Bend                    38    24    39               111.00013
  211 Bend                    38    24    40               107.99327
  212 Bend                    39    24    40               107.20349
  213 Bend                    42    26    43               110.28891
  214 Bend                    42    26    44               107.29644
  215 Bend                    43    26    44               108.40994
  216 Bend                    46    29    47               107.63594
  217 Bend                    46    29    48               108.33385
  218 Bend                    47    29    48               107.89010
  219 Bend                    49    30    50               108.29050
  220 Bend                    49    30    51               108.07844
  221 Bend                    50    30    51               107.75444
  222 Bend                    52    33    53               108.15936
  223 Bend                    52    33    54               108.21529
  224 Bend                    53    33    54               107.79983
  225 Bend                    55    34    56               108.42577
  226 Bend                    55    34    57               107.54977
  227 Bend                    56    34    57               107.91215
  228 Bend                    59    38    60               107.49617
  229 Bend                    59    38    61               108.39407
  230 Bend                    60    38    61               107.75654
  231 Bend                    62    39    63               108.55889
  232 Bend                    62    39    64               107.80692
  233 Bend                    63    39    64               107.75960
  234 Bend                    65    42    66               108.39241
  235 Bend                    65    42    67               109.50716
  236 Bend                    66    42    67               107.23866
  237 Bend                    68    43    69               108.44824
  238 Bend                    68    43    70               107.43678
  239 Bend                    69    43    70               107.92578
  240 Bend                    71    83    84               121.11573
  241 Bend                    71    83    85               120.39773
  242 Bend                    71    94    95               112.45309
  243 Bend                    71    94    96               109.89190
  244 Bend                    71    94    97               109.57691
  245 Bend                    72    73    76               120.14191
  246 Bend                    72    73    82               120.09808
  247 Bend                    72    75    74               120.08616
  248 Bend                    72    75    78               120.20961
  249 Bend                    73    72    75               119.62525
  250 Bend                    73    72    81               120.17979
  251 Bend                    73    76    77               120.47341
  252 Bend                    73    76    79               121.26213
  253 Bend                    74    75    78               119.70146
  254 Bend                    75    72    81               120.19404
  255 Bend                    75    78    77               120.44417
  256 Bend                    75    78    80               119.74581
  257 Bend                    76    73    82               119.75983
  258 Bend                    76    77    78               119.10212
  259 Bend                    77    76    79               118.26193
  260 Bend                    77    78    80               119.80960
  261 Bend                    83    71    94               113.36794
  262 Bend                    83    84    86               120.62385
  263 Bend                    83    84    87               119.24940
  264 Bend                    83    85    88               120.83548
  265 Bend                    83    85    89               118.86836
  266 Bend                    84    83    85               118.47340
  267 Bend                    84    86    90               120.51581
  268 Bend                    84    86    91               119.54371
  269 Bend                    85    88    90               120.27769
  270 Bend                    85    88    92               119.57934
  271 Bend                    86    84    87               120.12559
  272 Bend                    86    90    88               119.26615
  273 Bend                    86    90    93               120.28279
  274 Bend                    88    85    89               120.29283
  275 Bend                    88    90    93               120.44979
  276 Bend                    90    86    91               119.94014
  277 Bend                    90    88    92               120.13435
  278 Bend                    95    94    96               108.45983
  279 Bend                    95    94    97               107.32405
  280 Bend                    96    94    97               109.04987
  281 Torsion                  1     3     4     5        -171.21712
  282 Torsion                  1     3     4     6          17.30961
  283 Torsion                  1     3    71    83         116.65287
  284 Torsion                  1     3    71    94         -95.16692
  285 Torsion                  1    77    76    73         176.31967
  286 Torsion                  1    77    76    79          -3.10877
  287 Torsion                  1    77    78    75        -176.51012
  288 Torsion                  1    77    78    80           3.72577
  289 Torsion                  2     1     3     4         -75.90120
  290 Torsion                  2     1     3    71          99.71304
  291 Torsion                  2     1    77    76          10.01904
  292 Torsion                  2     1    77    78        -173.88428
  293 Torsion                  3     1    77    76        -147.07895
  294 Torsion                  3     1    77    78          29.01772
  295 Torsion                  3     4     5     7        -176.52687
  296 Torsion                  3     4     5     8           9.12453
  297 Torsion                  3     4     6     9         167.06228
  298 Torsion                  3     4     6    10          -7.52161
  299 Torsion                  3    71    83    84        -154.41049
  300 Torsion                  3    71    83    85          26.92830
  301 Torsion                  3    71    94    95         142.67850
  302 Torsion                  3    71    94    96         -96.39882
  303 Torsion                  3    71    94    97          23.40789
  304 Torsion                  4     3     1    77          81.50149
  305 Torsion                  4     5     7     9           8.61092
  306 Torsion                  4     5     7    11         128.68904
  307 Torsion                  4     5     7    12        -111.19754
  308 Torsion                  4     5     8    13         -90.08701
  309 Torsion                  4     5     8    14          89.32755
  310 Torsion                  4     6     9     7          10.01197
  311 Torsion                  4     6     9    15        -109.56052
  312 Torsion                  4     6     9    16         130.92632
  313 Torsion                  4     6    10    17        -100.52633
  314 Torsion                  4     6    10    18          80.81185
  315 Torsion                  5     4    71    83         -53.17950
  316 Torsion                  5     4    71    94          95.35652
  317 Torsion                  4     5     3    71        -171.33643
  318 Torsion                  5     4     6     9          -4.98875
  319 Torsion                  5     4     6    10        -179.57264
  320 Torsion                  5     7     9     6         -10.24446
  321 Torsion                  5     7     9    15         107.61573
  322 Torsion                  5     7     9    16        -129.51513
  323 Torsion                  5     8    13    19         177.83444
  324 Torsion                  5     8    13    20          -3.25245
  325 Torsion                  5     8    14    21        -178.50784
  326 Torsion                  5     8    14    22           1.75310
  327 Torsion                  6     4    71    83         137.77910
  328 Torsion                  6     4    71    94         -73.68488
  329 Torsion                  4     6     3    71         171.37143
  330 Torsion                  6     4     5     7          -2.77806
  331 Torsion                  6     4     5     8        -177.12666
  332 Torsion                  6     9     7    11        -128.86880
  333 Torsion                  6     9     7    12         108.16459
  334 Torsion                  6    10    17    23         179.78532
  335 Torsion                  6    10    17    24          -1.04070
  336 Torsion                  6    10    18    25        -179.73338
  337 Torsion                  6    10    18    26           2.86670
  338 Torsion                  7     5     8    13          96.11240
  339 Torsion                  7     5     8    14         -84.47304
  340 Torsion                  7     9     6    10        -175.16791
  341 Torsion                  8     5     7     9        -177.15972
  342 Torsion                  8     5     7    11         -57.08160
  343 Torsion                  8     5     7    12          63.03183
  344 Torsion                  8    13    19    27           0.96784
  345 Torsion                  8    13    19    28        -179.07990
  346 Torsion                  8    13    20    29        -113.93491
  347 Torsion                  8    13    20    30         121.57354
  348 Torsion                  8    13    20    31           3.80216
  349 Torsion                  8    14    21    27           0.40402
  350 Torsion                  8    14    21    32         179.60088
  351 Torsion                  8    14    22    33        -123.66235
  352 Torsion                  8    14    22    34         112.16927
  353 Torsion                  8    14    22    35          -6.19607
  354 Torsion                  9     6    10    17          85.28567
  355 Torsion                  9     6    10    18         -93.37614
  356 Torsion                 10     6     9    15          65.25961
  357 Torsion                 10     6     9    16         -54.25355
  358 Torsion                 10    17    23    36           0.40389
  359 Torsion                 10    17    23    37        -179.26117
  360 Torsion                 10    17    24    38        -115.45645
  361 Torsion                 10    17    24    39         120.23484
  362 Torsion                 10    17    24    40           2.71397
  363 Torsion                 10    18    25    36          -0.55088
  364 Torsion                 10    18    25    41         178.97465
  365 Torsion                 10    18    26    42        -134.37401
  366 Torsion                 10    18    26    43         101.96680
  367 Torsion                 10    18    26    44         -16.05317
  368 Torsion                 11     7     9    15         -11.00861
  369 Torsion                 11     7     9    16         111.86053
  370 Torsion                 12     7     9    15        -133.97522
  371 Torsion                 12     7     9    16         -11.10607
  372 Torsion                 13     8    14    21           0.88715
  373 Torsion                 13     8    14    22        -178.85191
  374 Torsion                 13    19    27    21           0.27104
  375 Torsion                 13    19    27    45        -179.72547
  376 Torsion                 13    20    29    46          56.06027
  377 Torsion                 13    20    29    47         -63.83925
  378 Torsion                 13    20    29    48         176.49565
  379 Torsion                 13    20    30    49         -57.23342
  380 Torsion                 13    20    30    50        -177.26739
  381 Torsion                 13    20    30    51          63.16517
  382 Torsion                 14     8    13    19          -1.56259
  383 Torsion                 14     8    13    20         177.35052
  384 Torsion                 14    21    27    19          -0.97989
  385 Torsion                 14    21    27    45         179.01662
  386 Torsion                 14    22    33    52          56.48831
  387 Torsion                 14    22    33    53         -64.00618
  388 Torsion                 14    22    33    54         176.30190
  389 Torsion                 14    22    34    55         -56.00782
  390 Torsion                 14    22    34    56        -176.75742
  391 Torsion                 14    22    34    57          63.69251
  392 Torsion                 17    10    18    25           1.66364
  393 Torsion                 17    10    18    26        -175.73628
  394 Torsion                 17    23    36    25           0.65600
  395 Torsion                 17    23    36    58        -179.51028
  396 Torsion                 17    24    38    59          56.06536
  397 Torsion                 17    24    38    60         -63.77136
  398 Torsion                 17    24    38    61         176.83482
  399 Torsion                 17    24    39    62         -56.51228
  400 Torsion                 17    24    39    63        -176.98454
  401 Torsion                 17    24    39    64          63.50408
  402 Torsion                 18    10    17    23          -1.59389
  403 Torsion                 18    10    17    24         177.58009
  404 Torsion                 18    25    36    23          -0.58008
  405 Torsion                 18    25    36    58         179.58617
  406 Torsion                 18    26    42    65          52.01626
  407 Torsion                 18    26    42    66         -68.51369
  408 Torsion                 18    26    42    67         172.95826
  409 Torsion                 18    26    43    68         -55.67990
  410 Torsion                 18    26    43    69        -176.85364
  411 Torsion                 18    26    43    70          63.94601
  412 Torsion                 19    13    20    29          64.95525
  413 Torsion                 19    13    20    30         -59.53630
  414 Torsion                 19    13    20    31        -177.30767
  415 Torsion                 19    27    21    32         179.82328
  416 Torsion                 20    13    19    27        -177.96494
  417 Torsion                 20    13    19    28           1.98732
  418 Torsion                 21    14    22    33          56.60404
  419 Torsion                 21    14    22    34         -67.56435
  420 Torsion                 21    14    22    35         174.07032
  421 Torsion                 21    27    19    28        -179.68120
  422 Torsion                 22    14    21    27        -179.85239
  423 Torsion                 22    14    21    32          -0.65554
  424 Torsion                 23    17    24    38          63.70160
  425 Torsion                 23    17    24    39         -60.60711
  426 Torsion                 23    17    24    40        -178.12798
  427 Torsion                 23    36    25    41         179.89454
  428 Torsion                 24    17    23    36        -178.78882
  429 Torsion                 24    17    23    37           1.54612
  430 Torsion                 25    18    26    42          48.29319
  431 Torsion                 25    18    26    43         -75.36600
  432 Torsion                 25    18    26    44         166.61403
  433 Torsion                 25    36    23    37        -179.67942
  434 Torsion                 26    18    25    36         176.89346
  435 Torsion                 26    18    25    41          -3.58101
  436 Torsion                 28    19    27    45           0.32229
  437 Torsion                 29    20    30    49         178.71328
  438 Torsion                 29    20    30    50          58.67931
  439 Torsion                 29    20    30    51         -60.88814
  440 Torsion                 30    20    29    46        -179.18161
  441 Torsion                 30    20    29    47          60.91887
  442 Torsion                 30    20    29    48         -58.74623
  443 Torsion                 31    20    29    46         -61.59299
  444 Torsion                 31    20    29    47         178.50749
  445 Torsion                 31    20    29    48          58.84239
  446 Torsion                 31    20    30    49          60.78877
  447 Torsion                 31    20    30    50         -59.24520
  448 Torsion                 31    20    30    51        -178.81265
  449 Torsion                 32    21    27    45          -0.18021
  450 Torsion                 33    22    34    55         179.41984
  451 Torsion                 33    22    34    56          58.67024
  452 Torsion                 33    22    34    57         -60.87983
  453 Torsion                 34    22    33    52        -179.60429
  454 Torsion                 34    22    33    53          59.90122
  455 Torsion                 34    22    33    54         -59.79070
  456 Torsion                 35    22    33    52         -61.54924
  457 Torsion                 35    22    33    53         177.95627
  458 Torsion                 35    22    33    54          58.26435
  459 Torsion                 35    22    34    55          62.15052
  460 Torsion                 35    22    34    56         -58.59908
  461 Torsion                 35    22    34    57        -178.14915
  462 Torsion                 37    23    36    58           0.15431
  463 Torsion                 38    24    39    62         179.19463
  464 Torsion                 38    24    39    63          58.72238
  465 Torsion                 38    24    39    64         -60.78901
  466 Torsion                 39    24    38    59        -179.33369
  467 Torsion                 39    24    38    60          60.82959
  468 Torsion                 39    24    38    61         -58.56424
  469 Torsion                 40    24    38    59         -62.09002
  470 Torsion                 40    24    38    60         178.07326
  471 Torsion                 40    24    38    61          58.67943
  472 Torsion                 40    24    39    62          61.46941
  473 Torsion                 40    24    39    63         -59.00285
  474 Torsion                 40    24    39    64        -178.51423
  475 Torsion                 41    25    36    58           0.06079
  476 Torsion                 42    26    43    68         179.15854
  477 Torsion                 42    26    43    69          57.98481
  478 Torsion                 42    26    43    70         -61.21555
  479 Torsion                 43    26    42    65         175.51769
  480 Torsion                 43    26    42    66          54.98775
  481 Torsion                 43    26    42    67         -63.54030
  482 Torsion                 44    26    42    65         -66.59254
  483 Torsion                 44    26    42    66         172.87751
  484 Torsion                 44    26    42    67          54.34946
  485 Torsion                 44    26    43    68          61.95640
  486 Torsion                 44    26    43    69         -59.21734
  487 Torsion                 44    26    43    70        -178.41770
  488 Torsion                 71     3     1    77        -102.88427
  489 Torsion                 71    83    84    86        -178.42763
  490 Torsion                 71    83    84    87           1.96342
  491 Torsion                 71    83    85    88         179.24107
  492 Torsion                 71    83    85    89          -0.09665
  493 Torsion                 72    73    76    77           0.23109
  494 Torsion                 72    73    76    79         179.64215
  495 Torsion                 72    75    78    77           0.72928
  496 Torsion                 72    75    78    80        -179.50645
  497 Torsion                 73    72    75    74        -179.86394
  498 Torsion                 73    72    75    78          -0.47168
  499 Torsion                 73    76    77    78           0.02091
  500 Torsion                 74    75    72    81          -0.21224
  501 Torsion                 74    75    78    77        -179.87611
  502 Torsion                 74    75    78    80          -0.11185
  503 Torsion                 75    72    73    76          -0.00603
  504 Torsion                 75    72    73    82         179.84344
  505 Torsion                 75    78    77    76          -0.49987
  506 Torsion                 76    73    72    81        -179.65779
  507 Torsion                 76    77    78    80         179.73602
  508 Torsion                 77    76    73    82        -179.61889
  509 Torsion                 78    75    72    81         179.18003
  510 Torsion                 78    77    76    79        -179.40754
  511 Torsion                 79    76    73    82          -0.20783
  512 Torsion                 81    72    73    82           0.19168
  513 Torsion                  4     3    83    71         178.94119
  514 Torsion                 83    71    94    95         -66.83176
  515 Torsion                 83    71    94    96          54.09091
  516 Torsion                 83    71    94    97         173.89763
  517 Torsion                 83    84    86    90          -0.65457
  518 Torsion                 83    84    86    91         179.55890
  519 Torsion                 83    85    88    90          -0.96069
  520 Torsion                 83    85    88    92        -179.89411
  521 Torsion                 84    83    71    94          55.94157
  522 Torsion                 84    83    85    88           0.54495
  523 Torsion                 84    83    85    89        -178.79276
  524 Torsion                 84    86    90    88           0.24225
  525 Torsion                 84    86    90    93         179.83481
  526 Torsion                 85    83    71    94        -122.71965
  527 Torsion                 85    83    84    86           0.25872
  528 Torsion                 85    83    84    87        -179.35022
  529 Torsion                 85    88    90    86           0.55849
  530 Torsion                 85    88    90    93        -179.03337
  531 Torsion                 86    90    88    92         179.48597
  532 Torsion                 87    84    86    90         178.95096
  533 Torsion                 87    84    86    91          -0.83558
  534 Torsion                 88    90    86    91        -179.97206
  535 Torsion                 89    85    88    90         178.36761
  536 Torsion                 89    85    88    92          -0.56581
  537 Torsion                 91    86    90    93          -0.37950
  538 Torsion                 92    88    90    93          -0.10590
  539 Torsion                  4     3    94    71         176.36291


            XYZ format geometry
            -------------------
    97
 geometry
 C                     1.54257254     0.53733364    -1.31636948
 O                     1.38535935     1.29670832    -2.25840254
 Ni                    0.08577424    -0.44450311    -0.71703358
 C                    -1.23141448     0.41823208     0.30358941
 N                    -2.17222996    -0.36012528     0.87019989
 N                    -1.58291913     1.68701030     0.52664126
 C                    -3.21186152     0.38012201     1.58364610
 C                    -2.07218630    -1.78343091     0.87009070
 C                    -2.88724661     1.82424905     1.18403049
 C                    -0.85337104     2.83308313     0.08100725
 H                    -4.20456856     0.06379220     1.25971921
 H                    -3.13424709     0.21364407     2.66188595
 C                    -2.63278395    -2.49899362    -0.19415597
 C                    -1.40746920    -2.42074213     1.92481707
 H                    -3.61654393     2.23372686     0.48034894
 H                    -2.82010384     2.49936149     2.03746110
 C                    -0.03327295     3.49135684     1.00154046
 C                    -1.00169435     3.27300800    -1.23766843
 C                    -2.48527717    -3.88250918    -0.20014268
 C                    -3.40269777    -1.81088863    -1.30407264
 C                    -1.29636669    -3.80584434     1.88491532
 C                    -0.82420228    -1.64317661     3.08819687
 C                     0.67770774     4.60239140     0.56285492
 C                     0.08192260     3.04083230     2.44535795
 C                    -0.27086029     4.38686496    -1.63268509
 C                    -1.96591412     2.60875693    -2.20165884
 C                    -1.82145303    -4.53071727     0.82709565
 H                    -2.89615578    -4.45978576    -1.01930471
 C                    -4.87614849    -2.22546267    -1.27126336
 C                    -2.78136320    -2.07884578    -2.67478025
 H                    -3.35218649    -0.73476518    -1.12781681
 H                    -0.78131721    -4.32410771     2.68475636
 C                     0.66836895    -1.92151207     3.26299647
 C                    -1.59355919    -1.94578450     4.37634763
 H                    -0.92768896    -0.57873593     2.86827185
 C                     0.56529845     5.04251535    -0.74469456
 H                     1.33066607     5.12538416     1.25129120
 C                    -0.46148259     4.10942695     3.39791955
 C                     1.51973362     2.66859070     2.80311931
 H                    -0.52476747     2.14039857     2.56688257
 H                    -0.35072482     4.74256696    -2.65189726
 C                    -1.34930120     2.35122015    -3.57625429
 C                    -3.23632105     3.45524937    -2.33915966
 H                    -2.24162252     1.63834174    -1.78236319
 H                    -1.71223320    -5.60758001     0.80371400
 H                    -5.32471068    -2.02117388    -0.29703439
 H                    -4.98685017    -3.29359739    -1.46899514
 H                    -5.44266391    -1.68347832    -2.03048461
 H                    -1.73714883    -1.76054603    -2.69949419
 H                    -3.32384119    -1.53465894    -3.45017270
 H                    -2.81790303    -3.14106531    -2.92586022
 H                     1.21375930    -1.69847389     2.34657504
 H                     0.85176205    -2.96632843     3.52249052
 H                     1.07792092    -1.30208640     4.06317777
 H                    -2.65986050    -1.74003922     4.26387637
 H                    -1.21130606    -1.34363543     5.20242539
 H                    -1.48826641    -2.99766035     4.65059728
 H                     1.13152008     5.90479265    -1.07397717
 H                    -1.49334822     4.37572428     3.15948782
 H                     0.13513539     5.02196796     3.33857587
 H                    -0.42674828     3.75540446     4.43026098
 H                     1.90266016     1.89815365     2.13483620
 H                     1.57272602     2.29671550     3.82907166
 H                     2.18088778     3.53447600     2.72810931
 H                    -0.40541893     1.81834518    -3.47897384
 H                    -1.16359580     3.28691673    -4.10858227
 H                    -2.03902570     1.76318083    -4.18610778
 H                    -3.71092009     3.64557620    -1.37444507
 H                    -3.96004732     2.95774823    -2.98815683
 H                    -2.99701160     4.42432883    -2.78312153
 N                     1.35634260    -1.22495543    -1.83420175
 C                     4.70629664     1.41716551     1.45187556
 C                     4.37310295     2.29618955     0.43021004
 H                     4.27817765    -0.47777311     2.36564478
 C                     4.02584925     0.21254235     1.57010308
 C                     3.36656832     1.97203945    -0.46649314
 C                     2.67727581     0.76656662    -0.34970543
 C                     3.01216142    -0.10692057     0.67864892
 H                     3.08825398     2.64597698    -1.26588099
 H                     2.48257843    -1.04212486     0.78236406
 H                     5.48855711     1.67215534     2.15589814
 H                     4.89722821     3.23912262     0.33237371
 C                     2.14506337    -2.31374203    -1.39082271
 C                     3.40011799    -2.56820206    -1.94557576
 C                     1.66750709    -3.17514857    -0.40347719
 C                     4.14979718    -3.65590085    -1.52659728
 H                     3.78769715    -1.90139055    -2.70549030
 C                     2.42628441    -4.25411008     0.02668731
 H                     0.68337557    -2.99468707     0.01847001
 C                     3.66984648    -4.50412953    -0.53684228
 H                     5.11847495    -3.84102352    -1.97408892
 H                     2.03456434    -4.91156473     0.79397393
 H                     4.25729745    -5.35400740    -0.21438108
 C                     1.09913221    -1.24351068    -3.27147913
 H                     2.00719972    -1.08486613    -3.86051017
 H                     0.66307769    -2.20478715    -3.55923361
 H                     0.40424128    -0.44793075    -3.52739400

 ==============================================================================
                                internuclear distances
 ------------------------------------------------------------------------------
       center one      |      center two      | atomic units |  angstroms
 ------------------------------------------------------------------------------
    2 O                |   1 C                |     2.30577  |     1.22016
    3 Ni               |   1 C                |     3.50770  |     1.85620
    4 C                |   3 Ni               |     3.54593  |     1.87642
    5 N                |   4 C                |     2.54379  |     1.34611
    6 N                |   4 C                |     2.52341  |     1.33533
    7 C                |   5 N                |     2.76301  |     1.46212
    8 C                |   5 N                |     2.69629  |     1.42682
    9 C                |   6 N                |     2.77234  |     1.46706
    9 C                |   7 C                |     2.89725  |     1.53316
   10 C                |   6 N                |     2.70192  |     1.42979
   11 H                |   7 C                |     2.06185  |     1.09108
   12 H                |   7 C                |     2.06693  |     1.09377
   13 C                |   8 C                |     2.64489  |     1.39961
   14 C                |   8 C                |     2.64593  |     1.40017
   15 H                |   9 C                |     2.06553  |     1.09303
   16 H                |   9 C                |     2.06026  |     1.09024
   17 C                |  10 C                |     2.64107  |     1.39759
   18 C                |  10 C                |     2.64186  |     1.39801
   19 C                |  13 C                |     2.62931  |     1.39137
   20 C                |  13 C                |     2.86477  |     1.51597
   21 C                |  14 C                |     2.62695  |     1.39012
   22 C                |  14 C                |     2.86483  |     1.51600
   23 C                |  17 C                |     2.62688  |     1.39009
   24 C                |  17 C                |     2.86644  |     1.51686
   25 C                |  18 C                |     2.62586  |     1.38954
   26 C                |  18 C                |     2.86605  |     1.51665
   27 C                |  19 C                |     2.61579  |     1.38422
   27 C                |  21 C                |     2.61858  |     1.38569
   28 H                |  19 C                |     2.04675  |     1.08310
   29 C                |  20 C                |     2.89320  |     1.53101
   30 C                |  20 C                |     2.88868  |     1.52863
   31 H                |  20 C                |     2.06288  |     1.09163
   32 H                |  21 C                |     2.04721  |     1.08334
   33 C                |  22 C                |     2.88813  |     1.52833
   34 C                |  22 C                |     2.89246  |     1.53063
   35 H                |  22 C                |     2.06327  |     1.09184
   36 C                |  23 C                |     2.61577  |     1.38421
   36 C                |  25 C                |     2.61682  |     1.38476
   37 H                |  23 C                |     2.04739  |     1.08343
   38 C                |  24 C                |     2.89354  |     1.53119
   39 C                |  24 C                |     2.88693  |     1.52770
   40 H                |  24 C                |     2.06458  |     1.09253
   41 H                |  25 C                |     2.04553  |     1.08245
   42 C                |  26 C                |     2.88828  |     1.52841
   43 C                |  26 C                |     2.89652  |     1.53277
   44 H                |  26 C                |     2.06450  |     1.09249
   45 H                |  27 C                |     2.04589  |     1.08264
   46 H                |  29 C                |     2.06323  |     1.09182
   47 H                |  29 C                |     2.06341  |     1.09191
   48 H                |  29 C                |     2.06240  |     1.09138
   49 H                |  30 C                |     2.06345  |     1.09193
   50 H                |  30 C                |     2.06288  |     1.09163
   51 H                |  30 C                |     2.06377  |     1.09210
   52 H                |  33 C                |     2.05887  |     1.08951
   53 H                |  33 C                |     2.06371  |     1.09207
   54 H                |  33 C                |     2.06293  |     1.09166
   55 H                |  34 C                |     2.06316  |     1.09178
   56 H                |  34 C                |     2.06240  |     1.09138
   57 H                |  34 C                |     2.06382  |     1.09213
   58 H                |  36 C                |     2.04628  |     1.08285
   59 H                |  38 C                |     2.06362  |     1.09202
   60 H                |  38 C                |     2.06336  |     1.09188
   61 H                |  38 C                |     2.06341  |     1.09191
   62 H                |  39 C                |     2.05868  |     1.08941
   63 H                |  39 C                |     2.06463  |     1.09256
   64 H                |  39 C                |     2.06362  |     1.09202
   65 H                |  42 C                |     2.05653  |     1.08827
   66 H                |  42 C                |     2.06438  |     1.09242
   67 H                |  42 C                |     2.06442  |     1.09244
   68 H                |  43 C                |     2.06330  |     1.09185
   69 H                |  43 C                |     2.06360  |     1.09201
   70 H                |  43 C                |     2.06447  |     1.09247
   71 N                |   3 Ni               |     3.52094  |     1.86320
   73 C                |  72 C                |     2.62359  |     1.38834
   75 C                |  72 C                |     2.62400  |     1.38856
   75 C                |  74 H                |     2.04675  |     1.08309
   76 C                |  73 C                |     2.62002  |     1.38646
   77 C                |   1 C                |     2.85000  |     1.50816
   77 C                |  76 C                |     2.63339  |     1.39353
   78 C                |  75 C                |     2.62142  |     1.38720
   78 C                |  77 C                |     2.62709  |     1.39019
   79 H                |  76 C                |     2.04464  |     1.08198
   80 H                |  78 C                |     2.04040  |     1.07973
   81 H                |  72 C                |     2.04632  |     1.08287
   82 H                |  73 C                |     2.04702  |     1.08324
   83 C                |  71 N                |     2.67523  |     1.41567
   84 C                |  83 C                |     2.63728  |     1.39559
   85 C                |  83 C                |     2.63543  |     1.39461
   86 C                |  84 C                |     2.61892  |     1.38588
   87 H                |  84 C                |     2.04608  |     1.08274
   88 C                |  85 C                |     2.62185  |     1.38742
   89 H                |  85 C                |     2.05200  |     1.08587
   90 C                |  86 C                |     2.62492  |     1.38905
   90 C                |  88 C                |     2.62292  |     1.38799
   91 H                |  86 C                |     2.04654  |     1.08298
   92 H                |  88 C                |     2.04791  |     1.08371
   93 H                |  90 C                |     2.04525  |     1.08230
   94 C                |  71 N                |     2.75943  |     1.46023
   95 H                |  94 C                |     2.06725  |     1.09394
   96 H                |  94 C                |     2.06750  |     1.09407
   97 H                |  94 C                |     2.05391  |     1.08688
 ------------------------------------------------------------------------------
                         number of included internuclear distances:        101
 ==============================================================================



 ==============================================================================
                                 internuclear angles
 ------------------------------------------------------------------------------
        center 1       |       center 2       |       center 3       |  degrees
 ------------------------------------------------------------------------------
    2 O                |   1 C                |   3 Ni               |   118.51
    2 O                |   1 C                |  77 C                |   119.81
    3 Ni               |   1 C                |  77 C                |   117.64
    1 C                |   3 Ni               |   4 C                |   118.90
    1 C                |   3 Ni               |  71 N                |    59.52
    4 C                |   3 Ni               |  71 N                |   175.88
    3 Ni               |   4 C                |   5 N                |   116.98
    3 Ni               |   4 C                |   6 N                |   135.44
    5 N                |   4 C                |   6 N                |   107.16
    4 C                |   5 N                |   7 C                |   114.18
    4 C                |   5 N                |   8 C                |   121.85
    7 C                |   5 N                |   8 C                |   123.71
    4 C                |   6 N                |   9 C                |   113.44
    4 C                |   6 N                |  10 C                |   125.12
    9 C                |   6 N                |  10 C                |   121.22
    5 N                |   7 C                |   9 C                |   101.49
    5 N                |   7 C                |  11 H                |   110.81
    5 N                |   7 C                |  12 H                |   110.70
    9 C                |   7 C                |  11 H                |   112.85
    9 C                |   7 C                |  12 H                |   112.66
   11 H                |   7 C                |  12 H                |   108.25
    5 N                |   8 C                |  13 C                |   118.81
    5 N                |   8 C                |  14 C                |   119.16
   13 C                |   8 C                |  14 C                |   122.02
    6 N                |   9 C                |   7 C                |   102.53
    6 N                |   9 C                |  15 H                |   109.86
    6 N                |   9 C                |  16 H                |   110.73
    7 C                |   9 C                |  15 H                |   112.30
    7 C                |   9 C                |  16 H                |   113.10
   15 H                |   9 C                |  16 H                |   108.24
    6 N                |  10 C                |  17 C                |   118.14
    6 N                |  10 C                |  18 C                |   119.48
   17 C                |  10 C                |  18 C                |   122.37
    8 C                |  13 C                |  19 C                |   117.98
    8 C                |  13 C                |  20 C                |   121.88
   19 C                |  13 C                |  20 C                |   120.13
    8 C                |  14 C                |  21 C                |   118.02
    8 C                |  14 C                |  22 C                |   121.82
   21 C                |  14 C                |  22 C                |   120.15
   10 C                |  17 C                |  23 C                |   117.95
   10 C                |  17 C                |  24 C                |   122.11
   23 C                |  17 C                |  24 C                |   119.93
   10 C                |  18 C                |  25 C                |   117.68
   10 C                |  18 C                |  26 C                |   121.95
   25 C                |  18 C                |  26 C                |   120.32
   13 C                |  19 C                |  27 C                |   120.88
   13 C                |  19 C                |  28 H                |   119.54
   27 C                |  19 C                |  28 H                |   119.58
   13 C                |  20 C                |  29 C                |   110.50
   13 C                |  20 C                |  30 C                |   111.75
   13 C                |  20 C                |  31 H                |   107.80
   29 C                |  20 C                |  30 C                |   111.28
   29 C                |  20 C                |  31 H                |   107.94
   30 C                |  20 C                |  31 H                |   107.38
   14 C                |  21 C                |  27 C                |   120.85
   14 C                |  21 C                |  32 H                |   119.57
   27 C                |  21 C                |  32 H                |   119.57
   14 C                |  22 C                |  33 C                |   111.72
   14 C                |  22 C                |  34 C                |   110.55
   14 C                |  22 C                |  35 H                |   108.00
   33 C                |  22 C                |  34 C                |   111.02
   33 C                |  22 C                |  35 H                |   107.05
   34 C                |  22 C                |  35 H                |   108.34
   17 C                |  23 C                |  36 C                |   120.71
   17 C                |  23 C                |  37 H                |   119.57
   36 C                |  23 C                |  37 H                |   119.72
   17 C                |  24 C                |  38 C                |   110.97
   17 C                |  24 C                |  39 C                |   111.52
   17 C                |  24 C                |  40 H                |   107.97
   38 C                |  24 C                |  39 C                |   111.00
   38 C                |  24 C                |  40 H                |   107.99
   39 C                |  24 C                |  40 H                |   107.20
   18 C                |  25 C                |  36 C                |   120.99
   18 C                |  25 C                |  41 H                |   119.49
   36 C                |  25 C                |  41 H                |   119.52
   18 C                |  26 C                |  42 C                |   112.89
   18 C                |  26 C                |  43 C                |   110.00
   18 C                |  26 C                |  44 H                |   107.79
   42 C                |  26 C                |  43 C                |   110.29
   42 C                |  26 C                |  44 H                |   107.30
   43 C                |  26 C                |  44 H                |   108.41
   19 C                |  27 C                |  21 C                |   120.22
   19 C                |  27 C                |  45 H                |   119.88
   21 C                |  27 C                |  45 H                |   119.91
   20 C                |  29 C                |  46 H                |   111.34
   20 C                |  29 C                |  47 H                |   111.01
   20 C                |  29 C                |  48 H                |   110.50
   46 H                |  29 C                |  47 H                |   107.64
   46 H                |  29 C                |  48 H                |   108.33
   47 H                |  29 C                |  48 H                |   107.89
   20 C                |  30 C                |  49 H                |   110.97
   20 C                |  30 C                |  50 H                |   110.34
   20 C                |  30 C                |  51 H                |   111.29
   49 H                |  30 C                |  50 H                |   108.29
   49 H                |  30 C                |  51 H                |   108.08
   50 H                |  30 C                |  51 H                |   107.75
   22 C                |  33 C                |  52 H                |   110.82
   22 C                |  33 C                |  53 H                |   111.43
   22 C                |  33 C                |  54 H                |   110.30
   52 H                |  33 C                |  53 H                |   108.16
   52 H                |  33 C                |  54 H                |   108.22
   53 H                |  33 C                |  54 H                |   107.80
   22 C                |  34 C                |  55 H                |   111.53
   22 C                |  34 C                |  56 H                |   110.60
   22 C                |  34 C                |  57 H                |   110.69
   55 H                |  34 C                |  56 H                |   108.43
   55 H                |  34 C                |  57 H                |   107.55
   56 H                |  34 C                |  57 H                |   107.91
   23 C                |  36 C                |  25 C                |   120.28
   23 C                |  36 C                |  58 H                |   119.87
   25 C                |  36 C                |  58 H                |   119.85
   24 C                |  38 C                |  59 H                |   111.70
   24 C                |  38 C                |  60 H                |   110.83
   24 C                |  38 C                |  61 H                |   110.52
   59 H                |  38 C                |  60 H                |   107.50
   59 H                |  38 C                |  61 H                |   108.39
   60 H                |  38 C                |  61 H                |   107.76
   24 C                |  39 C                |  62 H                |   111.07
   24 C                |  39 C                |  63 H                |   110.40
   24 C                |  39 C                |  64 H                |   111.13
   62 H                |  39 C                |  63 H                |   108.56
   62 H                |  39 C                |  64 H                |   107.81
   63 H                |  39 C                |  64 H                |   107.76
   26 C                |  42 C                |  65 H                |   110.61
   26 C                |  42 C                |  66 H                |   111.25
   26 C                |  42 C                |  67 H                |   109.76
   65 H                |  42 C                |  66 H                |   108.39
   65 H                |  42 C                |  67 H                |   109.51
   66 H                |  42 C                |  67 H                |   107.24
   26 C                |  43 C                |  68 H                |   112.17
   26 C                |  43 C                |  69 H                |   110.55
   26 C                |  43 C                |  70 H                |   110.17
   68 H                |  43 C                |  69 H                |   108.45
   68 H                |  43 C                |  70 H                |   107.44
   69 H                |  43 C                |  70 H                |   107.93
    3 Ni               |  71 N                |  83 C                |   120.95
    3 Ni               |  71 N                |  94 C                |   118.38
   83 C                |  71 N                |  94 C                |   113.37
   73 C                |  72 C                |  75 C                |   119.63
   73 C                |  72 C                |  81 H                |   120.18
   75 C                |  72 C                |  81 H                |   120.19
   72 C                |  73 C                |  76 C                |   120.14
   72 C                |  73 C                |  82 H                |   120.10
   76 C                |  73 C                |  82 H                |   119.76
   72 C                |  75 C                |  74 H                |   120.09
   72 C                |  75 C                |  78 C                |   120.21
   74 H                |  75 C                |  78 C                |   119.70
   73 C                |  76 C                |  77 C                |   120.47
   73 C                |  76 C                |  79 H                |   121.26
   77 C                |  76 C                |  79 H                |   118.26
    1 C                |  77 C                |  76 C                |   116.74
    1 C                |  77 C                |  78 C                |   124.05
   76 C                |  77 C                |  78 C                |   119.10
   75 C                |  78 C                |  77 C                |   120.44
   75 C                |  78 C                |  80 H                |   119.75
   77 C                |  78 C                |  80 H                |   119.81
   71 N                |  83 C                |  84 C                |   121.12
   71 N                |  83 C                |  85 C                |   120.40
   84 C                |  83 C                |  85 C                |   118.47
   83 C                |  84 C                |  86 C                |   120.62
   83 C                |  84 C                |  87 H                |   119.25
   86 C                |  84 C                |  87 H                |   120.13
   83 C                |  85 C                |  88 C                |   120.84
   83 C                |  85 C                |  89 H                |   118.87
   88 C                |  85 C                |  89 H                |   120.29
   84 C                |  86 C                |  90 C                |   120.52
   84 C                |  86 C                |  91 H                |   119.54
   90 C                |  86 C                |  91 H                |   119.94
   85 C                |  88 C                |  90 C                |   120.28
   85 C                |  88 C                |  92 H                |   119.58
   90 C                |  88 C                |  92 H                |   120.13
   86 C                |  90 C                |  88 C                |   119.27
   86 C                |  90 C                |  93 H                |   120.28
   88 C                |  90 C                |  93 H                |   120.45
   71 N                |  94 C                |  95 H                |   112.45
   71 N                |  94 C                |  96 H                |   109.89
   71 N                |  94 C                |  97 H                |   109.58
   95 H                |  94 C                |  96 H                |   108.46
   95 H                |  94 C                |  97 H                |   107.32
   96 H                |  94 C                |  97 H                |   109.05
 ------------------------------------------------------------------------------
                            number of included internuclear angles:        180
 ==============================================================================



                      Basis "ao basis" -> "" (cartesian)
                      -----
  C (Carbon)
  ----------
            Exponent  Coefficients 
       -------------- ---------------------------------------------------------
  1 S  1.23840169E+03  0.005457
  1 S  1.86290050E+02  0.040638
  1 S  4.22511763E+01  0.180256
  1 S  1.16765579E+01  0.463151
  1 S  3.59305065E+00  0.440872

  2 S  4.02451474E-01  1.000000

  3 S  1.30901827E-01  1.000000

  4 P  9.46809706E+00  0.038388
  4 P  2.01035451E+00  0.211170
  4 P  5.47710047E-01  0.513282

  5 P  1.52686138E-01  1.000000

  H (Hydrogen)
  ------------
            Exponent  Coefficients 
       -------------- ---------------------------------------------------------
  1 S  1.30107010E+01  0.019682
  1 S  1.96225720E+00  0.137965
  1 S  4.44537960E-01  0.478319

  2 S  1.21949620E-01  1.000000

  O (Oxygen)
  ----------
            Exponent  Coefficients 
       -------------- ---------------------------------------------------------
  1 S  2.26617678E+03 -0.005343
  1 S  3.40870102E+02 -0.039890
  1 S  7.73631352E+01 -0.178539
  1 S  2.14796449E+01 -0.464277
  1 S  6.65894331E+00 -0.443097

  2 S  8.09759757E-01  1.000000

  3 S  2.55307722E-01  1.000000

  4 P  1.77215043E+01  0.043395
  4 P  3.86355054E+00  0.230941
  4 P  1.04809209E+00  0.513753

  5 P  2.76415444E-01  1.000000

  N (Nitrogen)
  ------------
[...]
  ----- ------------  ---------------      ----- ------------  ---------------
   478     12.320748  84 C  s               487     11.811680  85 C  s         
   434    -10.984924  76 C  s               496    -11.018319  86 C  s         
   469    -10.915430  83 C  s               507    -10.914132  88 C  s         
   452    -10.847255  78 C  s               414     10.758701  73 C  s         
   425     10.576037  75 C  s               518     10.194719  90 C  s         

 Vector  526  Occ=0.000000D+00  E= 1.764677D+00
              MO Center= -6.8D-01,  1.5D+00,  3.4D-03, r^2= 1.5D+01
   Bfn.  Coefficient  Atom+Function         Bfn.  Coefficient  Atom+Function  
  ----- ------------  ---------------      ----- ------------  ---------------
   202     14.082237  23 C  s               220     14.113238  25 C  s         
   157    -13.311225  18 C  s               291    -12.299463  36 C  s         
   113     12.209008  10 C  s               148    -12.221299  17 C  s         
   118     11.563536  10 C  py              154     10.886923  17 C  pz        
   100      9.412734   8 C  py              184     -8.336249  21 C  s         

 Vector  527  Occ=0.000000D+00  E= 1.767025D+00
              MO Center=  1.4D+00, -1.0D-01, -1.0D-02, r^2= 1.4D+01
   Bfn.  Coefficient  Atom+Function         Bfn.  Coefficient  Atom+Function  
  ----- ------------  ---------------      ----- ------------  ---------------
   434     12.111634  76 C  s               425    -10.812057  75 C  s         
   414    -10.660427  73 C  s               452     10.119378  78 C  s         
   405      9.857297  72 C  s               443     -8.447343  77 C  s         
   447     -7.085168  77 C  px              184     -6.902766  21 C  s         
   100      6.775174   8 C  py              166     -6.770885  19 C  s         

 Vector  528  Occ=0.000000D+00  E= 1.836930D+00
              MO Center=  3.3D-01, -3.7D-01, -1.1D+00, r^2= 9.6D+00
   Bfn.  Coefficient  Atom+Function         Bfn.  Coefficient  Atom+Function  
  ----- ------------  ---------------      ----- ------------  ---------------
    22     22.764172   3 Ni s                23     -8.662220   3 Ni s         
   166      5.966958  19 C  s                56     -5.720733   3 Ni dzz       
    51     -5.156629   3 Ni dxx              54     -5.132775   3 Ni dyy       
   238     -4.482768  27 C  s               184      4.432708  21 C  s         
   220      4.244611  25 C  s               229     -4.177949  26 C  s         

 Vector  529  Occ=0.000000D+00  E= 1.884921D+00
              MO Center= -1.6D+00,  5.2D-01,  5.3D-01, r^2= 5.4D+00
   Bfn.  Coefficient  Atom+Function         Bfn.  Coefficient  Atom+Function  
  ----- ------------  ---------------      ----- ------------  ---------------
    22      6.251165   3 Ni s               100     -5.172644   8 C  py        
    73     -4.457949   5 N  py               86      4.216773   7 C  s         
   104     -4.151948   9 C  s                23     -3.620069   3 Ni s         
    81     -3.451396   6 N  px               68      3.352857   5 N  s         
   118     -3.048824  10 C  py              175     -2.869488  20 C  s         

 Vector  530  Occ=0.000000D+00  E= 1.945087D+00
              MO Center=  1.0D+00,  5.7D-01, -1.5D+00, r^2= 5.9D+00
   Bfn.  Coefficient  Atom+Function         Bfn.  Coefficient  Atom+Function  
  ----- ------------  ---------------      ----- ------------  ---------------
    22     10.612650   3 Ni s                12     -6.958686   2 O  s         
    23     -5.551544   3 Ni s               113     -5.011116  10 C  s         
     3      4.068160   1 C  s                 9     -4.044628   1 C  pz        
   157      3.998758  18 C  s               148      3.785403  17 C  s         
   166      3.375531  19 C  s               126     -3.357410  13 C  s         

 Vector  531  Occ=0.000000D+00  E= 2.858564D+00
              MO Center=  5.5D-02, -4.5D-01, -8.4D-01, r^2= 2.4D+00
   Bfn.  Coefficient  Atom+Function         Bfn.  Coefficient  Atom+Function  
  ----- ------------  ---------------      ----- ------------  ---------------
    22      8.533919   3 Ni s                21      5.785088   3 Ni s         
    23     -4.988749   3 Ni s                20     -3.003616   3 Ni s         
    45     -2.693887   3 Ni dxx              48     -2.692477   3 Ni dyy       
    50     -2.688996   3 Ni dzz             487      1.616006  85 C  s         
   166      1.572950  19 C  s               396     -1.531248  71 N  s         

 Vector  532  Occ=0.000000D+00  E= 3.096270D+00
              MO Center=  2.3D-01, -4.5D-01, -5.9D-01, r^2= 1.2D+00
   Bfn.  Coefficient  Atom+Function         Bfn.  Coefficient  Atom+Function  
  ----- ------------  ---------------      ----- ------------  ---------------
    22      3.817309   3 Ni s                21      1.306574   3 Ni s         
    23     -1.256321   3 Ni s                 9      1.169047   1 C  pz        
     7      1.159985   1 C  px               32     -1.135698   3 Ni pz        
   396     -1.117617  71 N  s               447      1.102430  77 C  px        
    12      1.073243   2 O  s                29      1.008078   3 Ni pz        

 Vector  533  Occ=0.000000D+00  E= 3.315514D+00
              MO Center=  1.8D-01, -3.9D-01, -7.4D-01, r^2= 1.3D+00
   Bfn.  Coefficient  Atom+Function         Bfn.  Coefficient  Atom+Function  
  ----- ------------  ---------------      ----- ------------  ---------------
     3      2.790055   1 C  s               448      1.992904  77 C  py        
   434     -1.875180  76 C  s                 8     -1.814298   1 C  py        
   396     -1.685061  71 N  s               452      1.505290  78 C  s         
    31     -1.462406   3 Ni py               28      1.217339   3 Ni py        
    77      1.134114   6 N  s               447      1.128662  77 C  px        

 Vector  534  Occ=0.000000D+00  E= 3.446437D+00
              MO Center=  1.4D-01, -4.2D-01, -7.2D-01, r^2= 1.4D+00
   Bfn.  Coefficient  Atom+Function         Bfn.  Coefficient  Atom+Function  
  ----- ------------  ---------------      ----- ------------  ---------------
     3      2.266156   1 C  s               434     -1.834675  76 C  s         
   448      1.749032  77 C  py              478     -1.468476  84 C  s         
    30     -1.383301   3 Ni px               64      1.368206   4 C  py        
   473      1.363529  83 C  px                8     -1.343159   1 C  py        
    33     -1.261101   3 Ni px               27      1.108753   3 Ni px        

 Vector  535  Occ=0.000000D+00  E= 4.758585D+00
              MO Center=  8.6D-02, -4.5D-01, -7.1D-01, r^2= 6.0D-01
   Bfn.  Coefficient  Atom+Function         Bfn.  Coefficient  Atom+Function  
  ----- ------------  ---------------      ----- ------------  ---------------
    49      1.648016   3 Ni dyz              43     -1.334703   3 Ni dyz       
    46      1.194125   3 Ni dxy              40     -0.969230   3 Ni dxy       
     3      0.876535   1 C  s                55     -0.848991   3 Ni dyz       
    52     -0.579638   3 Ni dxy               9      0.552971   1 C  pz        
    22     -0.508245   3 Ni s                68      0.490169   5 N  s         

 Vector  536  Occ=0.000000D+00  E= 4.803699D+00
              MO Center=  8.3D-02, -4.5D-01, -7.2D-01, r^2= 6.4D-01
   Bfn.  Coefficient  Atom+Function         Bfn.  Coefficient  Atom+Function  
  ----- ------------  ---------------      ----- ------------  ---------------
    95      1.161450   8 C  s                48      1.044719   3 Ni dyy       
    47     -0.941109   3 Ni dxz              12     -0.822836   2 O  s         
   135     -0.806001  14 C  s                42     -0.779337   3 Ni dyy       
    64      0.764909   4 C  py                9     -0.755955   1 C  pz        
    41      0.755192   3 Ni dxz              45     -0.751441   3 Ni dxx       

 Vector  537  Occ=0.000000D+00  E= 4.827339D+00
              MO Center=  7.8D-02, -4.5D-01, -7.2D-01, r^2= 6.4D-01
   Bfn.  Coefficient  Atom+Function         Bfn.  Coefficient  Atom+Function  
  ----- ------------  ---------------      ----- ------------  ---------------
    22      1.868510   3 Ni s                 3     -1.193801   1 C  s         
    56     -1.137043   3 Ni dzz              50      0.986979   3 Ni dzz       
    44     -0.943622   3 Ni dzz              45     -0.924702   3 Ni dxx       
    33      0.786401   3 Ni px               77      0.764031   6 N  s         
    64     -0.737811   4 C  py               48     -0.681129   3 Ni dyy       

 Vector  538  Occ=0.000000D+00  E= 4.939216D+00
              MO Center=  6.4D-02, -4.5D-01, -7.0D-01, r^2= 7.0D-01
   Bfn.  Coefficient  Atom+Function         Bfn.  Coefficient  Atom+Function  
  ----- ------------  ---------------      ----- ------------  ---------------
    22      2.359299   3 Ni s                47      1.337101   3 Ni dxz       
    46     -1.216873   3 Ni dxy              95     -1.051872   8 C  s         
    53     -1.023086   3 Ni dxz              41     -1.016262   3 Ni dxz       
    52      0.945019   3 Ni dxy              40      0.927908   3 Ni dxy       
    64      0.859635   4 C  py               68      0.820089   5 N  s         

 Vector  539  Occ=0.000000D+00  E= 5.099755D+00
              MO Center=  8.8D-02, -4.6D-01, -7.2D-01, r^2= 7.1D-01
   Bfn.  Coefficient  Atom+Function         Bfn.  Coefficient  Atom+Function  
  ----- ------------  ---------------      ----- ------------  ---------------
    22      2.721292   3 Ni s                53     -1.495087   3 Ni dxz       
    47      1.442344   3 Ni dxz              52     -1.415277   3 Ni dxy       
    46      1.314981   3 Ni dxy              59     -1.224098   4 C  s         
    33     -1.184761   3 Ni px               55      1.138907   3 Ni dyz       
    49     -1.089426   3 Ni dyz             396     -1.073505  71 N  s         

 Vector  540  Occ=0.000000D+00  E= 1.021935D+01
              MO Center=  9.3D-02, -4.5D-01, -7.2D-01, r^2= 6.2D-01
   Bfn.  Coefficient  Atom+Function         Bfn.  Coefficient  Atom+Function  
  ----- ------------  ---------------      ----- ------------  ---------------
    21     27.643055   3 Ni s                20    -17.418434   3 Ni s         
    45     -7.524691   3 Ni dxx              48     -7.480993   3 Ni dyy       
    50     -7.463816   3 Ni dzz              22      3.920473   3 Ni s         
    23     -2.055023   3 Ni s                19      1.506423   3 Ni s         
    56     -0.616479   3 Ni dzz              54     -0.586328   3 Ni dyy       

 Vector  541  Occ=0.000000D+00  E= 4.992104D+01
              MO Center=  8.7D-02, -4.5D-01, -7.2D-01, r^2= 1.1D-01
   Bfn.  Coefficient  Atom+Function         Bfn.  Coefficient  Atom+Function  
  ----- ------------  ---------------      ----- ------------  ---------------
    20     21.380719   3 Ni s                21    -20.658863   3 Ni s         
    45      5.139561   3 Ni dxx              48      5.131181   3 Ni dyy       
    50      5.126118   3 Ni dzz              19     -4.349437   3 Ni s         
    39     -2.734663   3 Ni dxx              42     -2.732093   3 Ni dyy       
    44     -2.730302   3 Ni dzz              22     -1.821314   3 Ni s         

 Vector  542  Occ=0.000000D+00  E= 1.174200D+02
              MO Center=  8.6D-02, -4.4D-01, -7.2D-01, r^2= 2.9D-02
   Bfn.  Coefficient  Atom+Function         Bfn.  Coefficient  Atom+Function  
  ----- ------------  ---------------      ----- ------------  ---------------
    26      0.882134   3 Ni pz               24      0.506176   3 Ni px        
    29     -0.333554   3 Ni pz               25     -0.315444   3 Ni py        
    27     -0.191394   3 Ni px               32      0.172358   3 Ni pz        
    22     -0.123540   3 Ni s                28      0.119271   3 Ni py        
    30      0.099115   3 Ni px               33     -0.074881   3 Ni px        

 Vector  543  Occ=0.000000D+00  E= 1.175768D+02
              MO Center=  8.6D-02, -4.4D-01, -7.2D-01, r^2= 3.0D-02
   Bfn.  Coefficient  Atom+Function         Bfn.  Coefficient  Atom+Function  
  ----- ------------  ---------------      ----- ------------  ---------------
    25      1.017152   3 Ni py               28     -0.392358   3 Ni py        
    26      0.292978   3 Ni pz                3     -0.218316   1 C  s         
    31      0.215917   3 Ni py              448     -0.166167  77 C  py        
     8      0.157031   1 C  py              434      0.152656  76 C  s         
   452     -0.125909  78 C  s                24      0.123289   3 Ni px        

 Vector  544  Occ=0.000000D+00  E= 1.176495D+02
              MO Center=  8.6D-02, -4.4D-01, -7.2D-01, r^2= 3.1D-02
   Bfn.  Coefficient  Atom+Function         Bfn.  Coefficient  Atom+Function  
  ----- ------------  ---------------      ----- ------------  ---------------
    24      0.929836   3 Ni px               26     -0.520258   3 Ni pz        
    27     -0.362814   3 Ni px               30      0.206892   3 Ni px        
    29      0.202969   3 Ni pz                3     -0.180690   1 C  s         
   434      0.170999  76 C  s               448     -0.167431  77 C  py        
     8      0.130235   1 C  py               32     -0.115600   3 Ni pz        

 Vector  545  Occ=0.000000D+00  E= 6.766718D+02
              MO Center=  8.6D-02, -4.4D-01, -7.2D-01, r^2= 2.3D-02
   Bfn.  Coefficient  Atom+Function         Bfn.  Coefficient  Atom+Function  
  ----- ------------  ---------------      ----- ------------  ---------------
    20     28.885432   3 Ni s                21    -15.357830   3 Ni s         
    39     -7.285494   3 Ni dxx              42     -7.286558   3 Ni dyy       
    44     -7.286698   3 Ni dzz              19     -4.276814   3 Ni s         
    45      3.412226   3 Ni dxx              48      3.415931   3 Ni dyy       
    50      3.416355   3 Ni dzz              51      0.133798   3 Ni dxx       


 center of mass
 --------------
 x =   0.06061515 y =  -0.01798135 z =  -0.03289315

 moments of inertia (a.u.)
 ------------------
       24531.652339855220          -0.000000000000           0.000000000002
          -0.000000000000       21204.460603657957          -0.000000000000
           0.000000000002          -0.000000000000       29431.035468312864

     Multipole analysis of the density
     ---------------------------------

     L   x y z        total         alpha         beta         nuclear
     -   - - -        -----         -----         ----         -------
     0   0 0 0      0.000000   -172.000000   -172.000000    344.000000

     1   1 0 0     -1.962507     -0.170804     -0.170804     -1.620898
     1   0 1 0     -0.278420     -4.339155     -4.339155      8.399891
     1   0 0 1      1.641936     -5.954017     -5.954017     13.549970

     2   2 0 0   -203.576390  -3731.407997  -3731.407997   7259.239604
     2   1 1 0      1.038434     -1.695457     -1.695457      4.429349
     2   1 0 1      2.949776    -47.098753    -47.098753     97.147282
     2   0 2 0   -204.395745  -4618.342648  -4618.342648   9032.289552
     2   0 1 1      1.064715      3.361102      3.361102     -5.657489
     2   0 0 2   -208.036528  -2471.835720  -2471.835720   4735.634912


 Task  times  cpu:     4438.3s     wall:     4438.3s


                                NWChem Input Module
                                -------------------


 Summary of allocated global arrays
-----------------------------------
  No active global arrays


MA_summarize_allocated_blocks: starting scan ...
heap block 'gridpts', handle 85, address 0x581c849f0460:
	type of elements:		double precision
	number of elements:		203683869
	address of client space:	0x581c849f04c0
	index for client space:		54435699
	total number of bytes:		1629471056
MA_summarize_allocated_blocks: scan completed: 1 heap block, 0 stack blocks
MA usage statistics:

	allocation statistics:
					      heap	     stack
					      ----	     -----
	current number of blocks	         1	         0
	maximum number of blocks	        34	        58
	current total bytes		1629471056	         0
	maximum total bytes		1648841992	  46705992
	maximum total K-bytes		   1648842	     46706
	maximum total M-bytes		      1649	        47


                                     CITATION
                                     --------
                Please cite the following reference when publishing
                           results obtained with NWChem:

          E. Apra, E. J. Bylaska, W. A. de Jong, N. Govind, K. Kowalski,
       T. P. Straatsma, M. Valiev, H. J. J. van Dam, Y. Alexeev, J. Anchell,
       V. Anisimov, F. W. Aquino, R. Atta-Fynn, J. Autschbach, N. P. Bauman,
     J. C. Becca, D. E. Bernholdt, K. Bhaskaran-Nair, S. Bogatko, P. Borowski,
         J. Boschen, J. Brabec, A. Bruner, E. Cauet, Y. Chen, G. N. Chuev,
      C. J. Cramer, J. Daily, M. J. O. Deegan, T. H. Dunning Jr., M. Dupuis,
   K. G. Dyall, G. I. Fann, S. A. Fischer, A. Fonari, H. Fruchtl, L. Gagliardi,
      J. Garza, N. Gawande, S. Ghosh, K. Glaesemann, A. W. Gotz, J. Hammond,
       V. Helms, E. D. Hermes, K. Hirao, S. Hirata, M. Jacquelin, L. Jensen,
   B. G. Johnson, H. Jonsson, R. A. Kendall, M. Klemm, R. Kobayashi, V. Konkov,
      S. Krishnamoorthy, M. Krishnan, Z. Lin, R. D. Lins, R. J. Littlefield,
      A. J. Logsdail, K. Lopata, W. Ma, A. V. Marenich, J. Martin del Campo,
   D. Mejia-Rodriguez, J. E. Moore, J. M. Mullin, T. Nakajima, D. R. Nascimento,
    J. A. Nichols, P. J. Nichols, J. Nieplocha, A. Otero-de-la-Roza, B. Palmer,
    A. Panyala, T. Pirojsirikul, B. Peng, R. Peverati, J. Pittner, L. Pollack,
   R. M. Richard, P. Sadayappan, G. C. Schatz, W. A. Shelton, D. W. Silverstein,
   D. M. A. Smith, T. A. Soares, D. Song, M. Swart, H. L. Taylor, G. S. Thomas,
            V. Tipparaju, D. G. Truhlar, K. Tsemekhman, T. Van Voorhis,
      A. Vazquez-Mayagoitia, P. Verma, O. Villa, A. Vishnu, K. D. Vogiatzis,
        D. Wang, J. H. Weare, M. J. Williamson, T. L. Windus, K. Wolinski,
        A. T. Wong, Q. Wu, C. Yang, Q. Yu, M. Zacharias, Z. Zhang, Y. Zhao,
                                and R. J. Harrison
                        "NWChem: Past, present, and future
                         J. Chem. Phys. 152, 184102 (2020)
                               doi:10.1063/5.0004997

                                      AUTHORS
                                      -------
  E. Apra, E. J. Bylaska, N. Govind, K. Kowalski, M. Valiev, D. Mejia-Rodriguez,
       A. Kunitsa, N. P. Bauman, A. Panyala, W. A. de Jong, T. P. Straatsma,
   H. J. J. van Dam, D. Wang, T. L. Windus, J. Hammond, J. Autschbach, A. Woods,
    K. Bhaskaran-Nair, J. Brabec, K. Lopata, S. A. Fischer, S. Krishnamoorthy,
     M. Jacquelin, W. Ma, M. Klemm, O. Villa, Y. Chen, V. Anisimov, F. Aquino,
     S. Hirata, M. T. Hackler, E. Hermes, L. Jensen, J. E. Moore, J. C. Becca,
      V. Konjkov, T. Risthaus, M. Malagoli, A. Marenich, A. Otero-de-la-Roza,
        J. Mullin, P. Nichols, R. Peverati, J. Pittner, Y. Zhao, P.-D. Fan,
        A. Fonari, M. J. Williamson, R. J. Harrison, J. R. Rehr, M. Dupuis,
     D. Silverstein, D. M. A. Smith, J. Nieplocha, V. Tipparaju, M. Krishnan,
     B. E. Van Kuiken, A. Vazquez-Mayagoitia, M. Swart, Q. Wu, T. Van Voorhis,
     A. A. Auer, M. Nooijen, L. D. Crosby, E. Brown, G. Cisneros, G. I. Fann,
   H. Fruchtl, J. Garza, K. Hirao, R. A. Kendall, J. A. Nichols, K. Tsemekhman,
    K. Wolinski, J. Anchell, D. E. Bernholdt, P. Borowski, T. Clark, D. Clerc,
   H. Dachsel, M. J. O. Deegan, K. Dyall, D. Elwood, E. Glendening, M. Gutowski,
   A. C. Hess, J. Jaffe, B. G. Johnson, J. Ju, R. Kobayashi, R. Kutteh, Z. Lin,
   R. Littlefield, X. Long, B. Meng, T. Nakajima, S. Niu, L. Pollack, M. Rosing,
   K. Glaesemann, G. Sandrone, M. Stave, H. Taylor, G. Thomas, J. H. van Lenthe,
                               A. T. Wong, Z. Zhang.

 Total times  cpu:     4438.9s     wall:     4438.9s
