 argument  1 = nwchem.in
  NWChem w/ OpenMP: maximum threads =    1
                                         
                                         


             Northwest Computational Chemistry Package (NWChem) 7.2.3
             --------------------------------------------------------


                    Environmental Molecular Sciences Laboratory
                       Pacific Northwest National Laboratory
                                Richland, WA 99352

                              Copyright (c) 1994-2022
                       Pacific Northwest National Laboratory
                            Battelle Memorial Institute

             NWChem is an open-source computational chemistry package
                        distributed under the terms of the
                      Educational Community License (ECL) 2.0
             A copy of the license is included with this distribution
                              in the LICENSE.TXT file

                                  ACKNOWLEDGMENT
                                  --------------

            This software and its documentation were developed at the
            EMSL at Pacific Northwest National Laboratory, a multiprogram
            national laboratory, operated for the U.S. Department of Energy
            by Battelle under Contract Number DE-AC05-76RL01830. Support
            for this work was provided by the Department of Energy Office
            of Biological and Environmental Research, Office of Basic
            Energy Sciences, and the Office of Advanced Scientific Computing.


           Job information
           ---------------

    hostname        = 5650be58eacf
    program         = nwchem
    date            = Sat Jun 28 21:50:16 2025

    compiled        = Fri_May_02_22:05:35_2025
    source          = /opt/nwchem
    nwchem branch   = 7.2.3
    nwchem revision = N/A
    ga revision     = 5.9.1
    use scalapack   = T
    input           = nwchem.in
    prefix          = ni_singlepoint.
    data base       = ./ni_singlepoint.db
    status          = startup
    nproc           =        5
    time left       =     -1s



           Memory information
           ------------------

    heap     =    509724444 doubles =     3888.9 Mbytes
    stack    =    509724445 doubles =     3888.9 Mbytes
    global   =    291271111 doubles =     2222.2 Mbytes (distinct from heap & stack)
    total    =   1310720000 doubles =    10000.0 Mbytes
    verify   = yes
    hardfail = no 


           Directory information
           ---------------------

  0 permanent = .
  0 scratch   = .




                                NWChem Input Module
                                -------------------


                          Ni complex single-point energy
                          ------------------------------

 Scaling coordinates for geometry "geometry" by  1.889725989
 (inverse scale =  0.529177249)

 C1  symmetry detected

          ------
          auto-z
          ------
  no constraints, skipping    0.0000000000000000     
  no constraints, skipping    0.0000000000000000     


                             Geometry "geometry" -> ""
                             -------------------------

 Output coordinates in angstroms (scale by  1.889725989 to convert to a.u.)

  No.       Tag          Charge          X              Y              Z
 ---- ---------------- ---------- -------------- -------------- --------------
    1 C                    6.0000     1.79931423     0.50289911    -1.54099510
    2 O                    8.0000     1.49254479     1.25008408    -2.47896309
    3 Ni                  28.0000     0.20196356    -0.35194223    -0.60908492
    4 C                    6.0000    -1.32607714     0.21796519     0.29516193
    5 N                    7.0000    -2.22382530    -0.66769965     0.78316360
    6 N                    7.0000    -1.83526766     1.44048256     0.52132386
    7 C                    6.0000    -3.35151739    -0.04943850     1.47705064
    8 C                    6.0000    -1.97112602    -2.07033403     0.79189575
    9 C                    6.0000    -3.19401455     1.41726079     1.06688689
   10 C                    6.0000    -1.21681610     2.65772785     0.10236677
   11 H                    1.0000    -4.29878343    -0.48192576     1.15154789
   12 H                    1.0000    -3.26507184    -0.19217174     2.55951772
   13 C                    6.0000    -2.46801338    -2.85079632    -0.25695172
   14 C                    6.0000    -1.21589628    -2.62508505     1.83069297
   15 H                    1.0000    -3.91411345     1.70963417     0.29667519
   16 H                    1.0000    -3.28950272     2.10932746     1.90435333
   17 C                    6.0000    -0.51678094     3.40554088     1.05279575
   18 C                    6.0000    -1.34219009     3.07504789    -1.22668525
   19 C                    6.0000    -2.14948997    -4.20451395    -0.27611287
   20 C                    6.0000    -3.32917872    -2.25672298    -1.35341597
   21 C                    6.0000    -0.92673477    -3.98466706     1.77768182
   22 C                    6.0000    -0.72843110    -1.79198701     2.99960033
   23 C                    6.0000     0.10307292     4.57837841     0.63693830
   24 C                    6.0000    -0.41472509     2.96732025     2.50055052
   25 C                    6.0000    -0.70496282     4.25262444    -1.59993734
   26 C                    6.0000    -2.19563036     2.31928205    -2.22671641
   27 C                    6.0000    -1.37769581    -4.76693535     0.72692091
   28 H                    1.0000    -2.50636206    -4.82620266    -1.08849860
   29 C                    6.0000    -4.70462416    -2.92595435    -1.39275744
   30 C                    6.0000    -2.63324442    -2.33599351    -2.71214099
   31 H                    1.0000    -3.47451374    -1.19937527    -1.12453669
   32 H                    1.0000    -0.33654080    -4.43657657     2.56617575
   33 C                    6.0000     0.79547945    -1.81234775     3.11068394
   34 C                    6.0000    -1.38694197    -2.25798697     4.30070365
   35 H                    1.0000    -1.02104837    -0.75563675     2.82129328
   36 C                    6.0000     0.01739136     4.99470335    -0.68035512
   37 H                    1.0000     0.66717350     5.16729410     1.35043197
   38 C                    6.0000    -1.00023328     4.01896567     3.44495397
   39 C                    6.0000     1.03037152     2.63575408     2.86667765
   40 H                    1.0000    -0.99692333     2.05046558     2.61560407
   41 H                    1.0000    -0.77049899     4.59183766    -2.62595890
   42 C                    6.0000    -1.48545260     2.09642628    -3.56132790
   43 C                    6.0000    -3.52157482     3.05717849    -2.44303908
   44 H                    1.0000    -2.41235201     1.33519093    -1.80507761
   45 H                    1.0000    -1.13346159    -5.82139475     0.69374416
   46 H                    1.0000    -5.20238186    -2.86622915    -0.42304536
   47 H                    1.0000    -4.62251768    -3.98174175    -1.65866414
   48 H                    1.0000    -5.34190591    -2.44421517    -2.13643118
   49 H                    1.0000    -1.67838583    -1.80827690    -2.68358801
   50 H                    1.0000    -3.25513679    -1.88460393    -3.48791519
   51 H                    1.0000    -2.44337858    -3.37368372    -2.99670556
   52 H                    1.0000     1.24871176    -1.42925233     2.19527586
   53 H                    1.0000     1.16857920    -2.82471198     3.28311746
   54 H                    1.0000     1.12430518    -1.18783253     3.94397565
   55 H                    1.0000    -2.47594041    -2.23932276     4.22396588
   56 H                    1.0000    -1.08938058    -1.61779672     5.13311013
   57 H                    1.0000    -1.09120243    -3.28111287     4.54271914
   58 H                    1.0000     0.51303816     5.90567115    -0.99231719
   59 H                    1.0000    -2.03849626     4.24699689     3.19560172
   60 H                    1.0000    -0.43542514     4.95180403     3.39264107
   61 H                    1.0000    -0.96351512     3.66652942     4.47771923
   62 H                    1.0000     1.43353617     1.87367515     2.19947023
   63 H                    1.0000     1.09404321     2.27017893     3.89455871
   64 H                    1.0000     1.66743258     3.51908771     2.78426729
   65 H                    1.0000    -0.50695943     1.64214800    -3.41104426
   66 H                    1.0000    -1.34356975     3.03868052    -4.09604161
   67 H                    1.0000    -2.09298489     1.45109473    -4.20042756
   68 H                    1.0000    -4.05528984     3.22363082    -1.50507085
   69 H                    1.0000    -4.17125099     2.49192864    -3.11461877
   70 H                    1.0000    -3.34028562     4.03539574    -2.89462559
   71 N                    7.0000     1.64906974    -0.93799798    -1.73164024
   72 C                    6.0000     4.28807167     2.26829764     1.49740805
   73 C                    6.0000     3.80283030     2.99408605     0.41893928
   74 H                    1.0000     4.29925575     0.35674637     2.47330566
   75 C                    6.0000     3.94121946     0.93104562     1.62771808
   76 C                    6.0000     3.00020056     2.38253424    -0.52976706
   77 C                    6.0000     2.66126283     1.03227280    -0.42029324
   78 C                    6.0000     3.12799614     0.31806870     0.68579268
   79 H                    1.0000     2.62045845     2.93195169    -1.38009221
   80 H                    1.0000     2.86774841    -0.71961054     0.82702861
   81 H                    1.0000     4.92369481     2.74204804     2.23487081
   82 H                    1.0000     4.05515275     4.04173987     0.30954713
   83 C                    6.0000     2.61276434    -1.89344563    -1.24436220
   84 C                    6.0000     3.93823643    -1.79986525    -1.64333326
   85 C                    6.0000     2.19309061    -2.93644118    -0.43226339
   86 C                    6.0000     4.85548844    -2.74269036    -1.20464902
   87 H                    1.0000     4.24519504    -0.97892047    -2.28040994
   88 C                    6.0000     3.11438580    -3.87855272     0.00321920
   89 H                    1.0000     1.15038317    -2.98750128    -0.13427512
   90 C                    6.0000     4.44594641    -3.78136142    -0.37904211
   91 H                    1.0000     5.89160745    -2.66603007    -1.50781373
   92 H                    1.0000     2.79056291    -4.68797557     0.64542040
   93 H                    1.0000     5.16369602    -4.51578055    -0.03732155
   94 C                    6.0000     1.20446317    -1.31128895    -3.08969995
   95 H                    1.0000     2.03645371    -1.22870636    -3.79364191
   96 H                    1.0000     0.85139217    -2.34099855    -3.05870944
   97 H                    1.0000     0.40818062    -0.64708431    -3.40771722

      Atomic Mass 
      ----------- 

      C                 12.000000
      O                 15.994910
      Ni                57.935300
      N                 14.003070
      H                  1.007825


 Effective nuclear repulsion energy (a.u.)    7254.0786064056

            Nuclear Dipole moment (a.u.) 
            ----------------------------
        X                 Y               Z
 ---------------- ---------------- ----------------
    -0.0000000000     0.0000000000     0.0000000000



                                Z-matrix (autoz)
                                -------- 

 Units are Angstrom for bonds and degrees for angles

      Type          Name      I     J     K     L     M      Value
      ----------- --------  ----- ----- ----- ----- ----- ----------
    1 Stretch                  1     2                       1.23781
    2 Stretch                  1     3                       2.03734
    3 Stretch                  1    71                       1.46120
    4 Stretch                  1    77                       1.50969
    5 Stretch                  3     4                       1.86477
    6 Stretch                  3    71                       1.92294
    7 Stretch                  4     5                       1.35222
    8 Stretch                  4     6                       1.34349
    9 Stretch                  5     7                       1.46131
   10 Stretch                  5     8                       1.42524
   11 Stretch                  6     9                       1.46437
   12 Stretch                  6    10                       1.42818
   13 Stretch                  7     9                       1.53109
   14 Stretch                  7    11                       1.09101
   15 Stretch                  7    12                       1.09525
   16 Stretch                  8    13                       1.39861
   17 Stretch                  8    14                       1.39901
   18 Stretch                  9    15                       1.09419
   19 Stretch                  9    16                       1.09061
   20 Stretch                 10    17                       1.39735
   21 Stretch                 10    18                       1.39866
   22 Stretch                 13    19                       1.39082
   23 Stretch                 13    20                       1.51551
   24 Stretch                 14    21                       1.39100
   25 Stretch                 14    22                       1.51592
   26 Stretch                 17    23                       1.39022
   27 Stretch                 17    24                       1.51606
   28 Stretch                 18    25                       1.38999
   29 Stretch                 18    26                       1.51644
   30 Stretch                 19    27                       1.38494
   31 Stretch                 19    28                       1.08343
   32 Stretch                 20    29                       1.53012
   33 Stretch                 20    30                       1.52864
   34 Stretch                 20    31                       1.09155
   35 Stretch                 21    27                       1.38543
   36 Stretch                 21    32                       1.08364
   37 Stretch                 22    33                       1.52809
   38 Stretch                 22    34                       1.53090
   39 Stretch                 22    35                       1.09153
   40 Stretch                 23    36                       1.38417
   41 Stretch                 23    37                       1.08356
   42 Stretch                 24    38                       1.52993
   43 Stretch                 24    39                       1.52718
   44 Stretch                 24    40                       1.09216
   45 Stretch                 25    36                       1.38496
   46 Stretch                 25    41                       1.08263
   47 Stretch                 26    42                       1.52814
   48 Stretch                 26    43                       1.53278
   49 Stretch                 26    44                       1.09233
   50 Stretch                 27    45                       1.08288
   51 Stretch                 29    46                       1.09164
   52 Stretch                 29    47                       1.09185
   53 Stretch                 29    48                       1.09144
   54 Stretch                 30    49                       1.09135
   55 Stretch                 30    50                       1.09194
   56 Stretch                 30    51                       1.09262
   57 Stretch                 33    52                       1.09094
   58 Stretch                 33    53                       1.09262
   59 Stretch                 33    54                       1.09203
   60 Stretch                 34    55                       1.09186
   61 Stretch                 34    56                       1.09146
   62 Stretch                 34    57                       1.09216
   63 Stretch                 36    58                       1.08298
   64 Stretch                 38    59                       1.09186
   65 Stretch                 38    60                       1.09176
   66 Stretch                 38    61                       1.09186
   67 Stretch                 39    62                       1.09017
   68 Stretch                 39    63                       1.09281
   69 Stretch                 39    64                       1.09221
   70 Stretch                 42    65                       1.08922
   71 Stretch                 42    66                       1.09265
   72 Stretch                 42    67                       1.09270
   73 Stretch                 43    68                       1.09194
   74 Stretch                 43    69                       1.09206
   75 Stretch                 43    70                       1.09257
   76 Stretch                 71    83                       1.44188
   77 Stretch                 71    94                       1.47694
   78 Stretch                 72    73                       1.38756
   79 Stretch                 72    75                       1.38763
   80 Stretch                 72    81                       1.08273
   81 Stretch                 73    76                       1.38501
   82 Stretch                 73    82                       1.08315
   83 Stretch                 74    75                       1.08306
   84 Stretch                 75    78                       1.38719
   85 Stretch                 76    77                       1.39645
   86 Stretch                 76    79                       1.08126
   87 Stretch                 77    78                       1.39691
   88 Stretch                 78    80                       1.07910
   89 Stretch                 83    84                       1.38738
   90 Stretch                 83    85                       1.38689
   91 Stretch                 84    86                       1.38662
   92 Stretch                 84    87                       1.08353
   93 Stretch                 85    88                       1.38781
   94 Stretch                 85    89                       1.08565
   95 Stretch                 86    90                       1.38859
   96 Stretch                 86    91                       1.08228
   97 Stretch                 88    90                       1.38875
   98 Stretch                 88    92                       1.08280
   99 Stretch                 90    93                       1.08227
  100 Stretch                 94    95                       1.09296
  101 Stretch                 94    96                       1.08900
  102 Stretch                 94    97                       1.08461
  103 Bend                     1     3     4               137.39467
  104 Bend                     1     3    71                43.18278
  105 Bend                     1    71     3                72.58311
  106 Bend                     1    71    83               122.72566
  107 Bend                     1    71    94               113.58804
  108 Bend                     1    77    76               114.79884
  109 Bend                     1    77    78               126.81803
  110 Bend                     2     1     3               113.92751
  111 Bend                     2     1    71               118.09257
  112 Bend                     2     1    77               119.49522
  113 Bend                     3     1    71                64.23411
  114 Bend                     3     1    77               104.78622
  115 Bend                     3     4     5               121.25518
  116 Bend                     3     4     6               132.08980
  117 Bend                     3    71    83               120.50688
  118 Bend                     3    71    94               112.78475
  119 Bend                     4     3    71               173.15719
  120 Bend                     4     5     7               113.99094
  121 Bend                     4     5     8               121.94331
  122 Bend                     4     6     9               113.57535
  123 Bend                     4     6    10               124.19804
  124 Bend                     5     4     6               106.47626
  125 Bend                     5     7     9               101.46122
  126 Bend                     5     7    11               111.13959
  127 Bend                     5     7    12               110.68633
  128 Bend                     5     8    13               118.78938
  129 Bend                     5     8    14               119.37378
  130 Bend                     6     9     7               102.14845
  131 Bend                     6     9    15               110.13044
  132 Bend                     6     9    16               110.93210
  133 Bend                     6    10    17               118.26411
  134 Bend                     6    10    18               119.61950
  135 Bend                     7     5     8               123.38706
  136 Bend                     7     9    15               112.13795
  137 Bend                     7     9    16               113.15158
  138 Bend                     8    13    19               118.17137
  139 Bend                     8    13    20               121.71542
  140 Bend                     8    14    21               118.13156
  141 Bend                     8    14    22               121.88536
  142 Bend                     9     6    10               121.64185
  143 Bend                     9     7    11               112.90025
  144 Bend                     9     7    12               112.42548
  145 Bend                    10    17    23               118.12482
  146 Bend                    10    17    24               121.90772
  147 Bend                    10    18    25               117.82980
  148 Bend                    10    18    26               121.89626
  149 Bend                    11     7    12               108.16378
  150 Bend                    13     8    14               121.82648
  151 Bend                    13    19    27               120.85811
  152 Bend                    13    19    28               119.56438
  153 Bend                    13    20    29               110.97426
  154 Bend                    13    20    30               111.34924
  155 Bend                    13    20    31               107.67790
  156 Bend                    14    21    27               120.87219
  157 Bend                    14    21    32               119.54449
  158 Bend                    14    22    33               111.67956
  159 Bend                    14    22    34               110.47123
  160 Bend                    14    22    35               108.03617
  161 Bend                    15     9    16               108.26090
  162 Bend                    17    10    18               122.10976
  163 Bend                    17    23    36               120.71873
  164 Bend                    17    23    37               119.58180
  165 Bend                    17    24    38               111.40898
  166 Bend                    17    24    39               110.81749
  167 Bend                    17    24    40               107.90077
  168 Bend                    18    25    36               120.98045
  169 Bend                    18    25    41               119.48407
  170 Bend                    18    26    42               112.77269
  171 Bend                    18    26    43               109.87632
  172 Bend                    18    26    44               107.82465
  173 Bend                    19    13    20               120.11311
  174 Bend                    19    27    21               120.09198
  175 Bend                    19    27    45               119.92976
  176 Bend                    20    29    46               111.29142
  177 Bend                    20    29    47               111.19787
  178 Bend                    20    29    48               110.44681
  179 Bend                    20    30    49               110.48694
  180 Bend                    20    30    50               110.53395
  181 Bend                    20    30    51               111.09118
  182 Bend                    21    14    22               119.97956
  183 Bend                    21    27    45               119.97633
  184 Bend                    22    33    52               110.40401
  185 Bend                    22    33    53               111.36800
  186 Bend                    22    33    54               110.37376
  187 Bend                    22    34    55               111.35119
  188 Bend                    22    34    56               110.63193
  189 Bend                    22    34    57               110.91658
  190 Bend                    23    17    24               119.96652
  191 Bend                    23    36    25               120.20026
  192 Bend                    23    36    58               119.92150
  193 Bend                    24    38    59               111.50003
  194 Bend                    24    38    60               111.08550
  195 Bend                    24    38    61               110.43409
  196 Bend                    24    39    62               110.79244
  197 Bend                    24    39    63               110.68665
  198 Bend                    24    39    64               110.99266
  199 Bend                    25    18    26               120.20816
  200 Bend                    25    36    58               119.87772
  201 Bend                    26    42    65               110.96594
  202 Bend                    26    42    66               111.22196
  203 Bend                    26    42    67               109.78853
  204 Bend                    26    43    68               112.02268
  205 Bend                    26    43    69               110.62452
  206 Bend                    26    43    70               110.23181
  207 Bend                    27    19    28               119.57702
  208 Bend                    27    21    32               119.58254
  209 Bend                    29    20    30               111.32811
  210 Bend                    29    20    31               108.02131
  211 Bend                    30    20    31               107.29086
  212 Bend                    33    22    34               111.29260
  213 Bend                    33    22    35               106.97008
  214 Bend                    34    22    35               108.21166
  215 Bend                    36    23    37               119.69682
  216 Bend                    36    25    41               119.53479
  217 Bend                    38    24    39               111.30804
  218 Bend                    38    24    40               107.93954
  219 Bend                    39    24    40               107.27158
  220 Bend                    42    26    43               110.42438
  221 Bend                    42    26    44               107.33371
  222 Bend                    43    26    44               108.45465
  223 Bend                    46    29    47               107.66979
  224 Bend                    46    29    48               108.35348
  225 Bend                    47    29    48               107.74428
  226 Bend                    49    30    50               108.48149
  227 Bend                    49    30    51               108.30098
  228 Bend                    50    30    51               107.85058
  229 Bend                    52    33    53               108.41669
  230 Bend                    52    33    54               108.32269
  231 Bend                    53    33    54               107.85642
  232 Bend                    55    34    56               108.39021
  233 Bend                    55    34    57               107.55742
  234 Bend                    56    34    57               107.85727
  235 Bend                    59    38    60               107.61105
  236 Bend                    59    38    61               108.38513
  237 Bend                    60    38    61               107.68145
  238 Bend                    62    39    63               108.67866
  239 Bend                    62    39    64               107.66641
  240 Bend                    63    39    64               107.91091
  241 Bend                    65    42    66               108.09108
  242 Bend                    65    42    67               109.50294
  243 Bend                    66    42    67               107.17340
  244 Bend                    68    43    69               108.44367
  245 Bend                    68    43    70               107.43731
  246 Bend                    69    43    70               107.93613
  247 Bend                    71     1    77               120.08861
  248 Bend                    71    83    84               119.77907
  249 Bend                    71    83    85               119.60180
  250 Bend                    71    94    95               110.11935
  251 Bend                    71    94    96               108.08442
  252 Bend                    71    94    97               109.62350
  253 Bend                    72    73    76               120.27129
  254 Bend                    72    73    82               120.19593
  255 Bend                    72    75    74               120.11174
  256 Bend                    72    75    78               120.57131
  257 Bend                    73    72    75               119.31776
  258 Bend                    73    72    81               120.38569
  259 Bend                    73    76    77               120.92416
  260 Bend                    73    76    79               121.18799
  261 Bend                    74    75    78               119.31556
  262 Bend                    75    72    81               120.29434
  263 Bend                    75    78    77               120.50418
  264 Bend                    75    78    80               118.51799
  265 Bend                    76    73    82               119.53137
  266 Bend                    76    77    78               118.38166
  267 Bend                    77    76    79               117.88712
  268 Bend                    77    78    80               120.97773
  269 Bend                    83    71    94               110.14898
  270 Bend                    83    84    86               119.67925
  271 Bend                    83    84    87               119.39588
  272 Bend                    83    85    88               119.56309
  273 Bend                    83    85    89               119.12530
  274 Bend                    84    83    85               120.54488
  275 Bend                    84    86    90               120.10616
  276 Bend                    84    86    91               119.76911
  277 Bend                    85    88    90               120.17421
  278 Bend                    85    88    92               119.67218
  279 Bend                    86    84    87               120.91584
  280 Bend                    86    90    88               119.92024
  281 Bend                    86    90    93               119.98160
  282 Bend                    88    85    89               121.30096
  283 Bend                    88    90    93               120.09780
  284 Bend                    90    86    91               120.12473
  285 Bend                    90    88    92               120.15327
  286 Bend                    95    94    96               109.66836
  287 Bend                    95    94    97               108.88981
  288 Bend                    96    94    97               110.44857
  289 Torsion                  1     3     4     5         178.63186
  290 Torsion                  1     3     4     6           4.19726
  291 Torsion                  1     3    71    83         118.21584
  292 Torsion                  1     3    71    94        -108.85115
  293 Torsion                  1    71     3     4          98.50162
  294 Torsion                  1    71    83    84         -57.18250
  295 Torsion                  1    71    83    85         125.93341
  296 Torsion                  1    71    94    95          76.12259
  297 Torsion                  1    71    94    96        -164.09542
  298 Torsion                  1    71    94    97         -43.65687
  299 Torsion                  1    77    76    73        -179.06394
  300 Torsion                  1    77    76    79           0.62968
  301 Torsion                  1    77    78    75         178.55962
  302 Torsion                  1    77    78    80          -1.32052
  303 Torsion                  2     1     3     4         -59.00580
  304 Torsion                  2     1     3    71         110.96957
  305 Torsion                  2     1    71     3        -104.64620
  306 Torsion                  2     1    71    83         139.83383
  307 Torsion                  2     1    71    94           3.16655
  308 Torsion                  2     1    77    76           2.41963
  309 Torsion                  2     1    77    78        -178.03162
  310 Torsion                  3     1    71    83        -115.51998
  311 Torsion                  3     1    71    94         107.81275
  312 Torsion                  3     1    77    76        -126.72205
  313 Torsion                  3     1    77    78          52.82670
  314 Torsion                  3     4     5     7         179.27417
  315 Torsion                  3     4     5     8           8.41801
  316 Torsion                  3     4     6     9         169.17242
  317 Torsion                  3     4     6    10          -2.15812
  318 Torsion                  3    71     1    77          92.74249
  319 Torsion                  3    71    83    84        -145.21518
  320 Torsion                  3    71    83    85          37.90073
  321 Torsion                  3    71    94    95         156.28561
  322 Torsion                  3    71    94    96         -83.93241
  323 Torsion                  3    71    94    97          36.50614
  324 Torsion                  4     3     1    71        -169.97538
  325 Torsion                  4     3     1    77          73.38705
  326 Torsion                  4     3    71    83        -143.28255
  327 Torsion                  4     3    71    94         -10.34953
  328 Torsion                  4     5     7     9          12.78575
  329 Torsion                  4     5     7    11         133.05653
  330 Torsion                  4     5     7    12        -106.72748
  331 Torsion                  4     5     8    13         -95.85942
  332 Torsion                  4     5     8    14          82.99148
  333 Torsion                  4     6     9     7          13.35811
  334 Torsion                  4     6     9    15        -105.94672
  335 Torsion                  4     6     9    16         134.21722
  336 Torsion                  4     6    10    17        -101.51699
  337 Torsion                  4     6    10    18          79.39940
  338 Torsion                  5     4     3    71          87.48319
  339 Torsion                  5     4     6     9          -5.86779
  340 Torsion                  5     4     6    10        -177.19833
  341 Torsion                  5     7     9     6         -14.38956
  342 Torsion                  5     7     9    15         103.49149
  343 Torsion                  5     7     9    16        -133.69733
  344 Torsion                  5     8    13    19         176.38687
  345 Torsion                  5     8    13    20          -3.49931
  346 Torsion                  5     8    14    21        -176.75323
  347 Torsion                  5     8    14    22           3.92962
  348 Torsion                  6     4     3    71         -86.95141
  349 Torsion                  6     4     5     7          -5.03002
  350 Torsion                  6     4     5     8        -175.88617
  351 Torsion                  6     9     7    11        -133.40912
  352 Torsion                  6     9     7    12         103.87859
  353 Torsion                  6    10    17    23         178.93700
  354 Torsion                  6    10    17    24          -0.70758
  355 Torsion                  6    10    18    25        -178.84543
  356 Torsion                  6    10    18    26           4.09999
  357 Torsion                  7     5     8    13          94.15408
  358 Torsion                  7     5     8    14         -86.99503
  359 Torsion                  7     9     6    10        -175.06264
  360 Torsion                  8     5     7     9        -176.50834
  361 Torsion                  8     5     7    11         -56.23756
  362 Torsion                  8     5     7    12          63.97844
  363 Torsion                  8    13    19    27           0.92750
  364 Torsion                  8    13    19    28        -178.81487
  365 Torsion                  8    13    20    29        -119.78208
  366 Torsion                  8    13    20    30         115.60310
  367 Torsion                  8    13    20    31          -1.75271
  368 Torsion                  8    14    21    27          -0.17131
  369 Torsion                  8    14    21    32         179.50669
  370 Torsion                  8    14    22    33        -120.66987
  371 Torsion                  8    14    22    34         114.89181
  372 Torsion                  8    14    22    35          -3.29789
  373 Torsion                  9     6    10    17          87.82205
  374 Torsion                  9     6    10    18         -91.26156
  375 Torsion                 10     6     9    15          65.63252
  376 Torsion                 10     6     9    16         -54.20354
  377 Torsion                 10    17    23    36           0.49741
  378 Torsion                 10    17    23    37        -178.90787
  379 Torsion                 10    17    24    38        -120.66352
  380 Torsion                 10    17    24    39         114.81971
  381 Torsion                 10    17    24    40          -2.34872
  382 Torsion                 10    18    25    36          -0.71561
  383 Torsion                 10    18    25    41         178.98114
  384 Torsion                 10    18    26    42        -133.63498
  385 Torsion                 10    18    26    43         102.70819
  386 Torsion                 10    18    26    44         -15.31468
  387 Torsion                 11     7     9    15         -15.52808
  388 Torsion                 11     7     9    16         107.28310
  389 Torsion                 12     7     9    15        -138.24037
  390 Torsion                 12     7     9    16         -15.42919
  391 Torsion                 13     8    14    21           2.06148
  392 Torsion                 13     8    14    22        -177.25567
  393 Torsion                 13    19    27    21           0.89346
  394 Torsion                 13    19    27    45        -179.61247
  395 Torsion                 13    20    29    46          55.55284
  396 Torsion                 13    20    29    47         -64.48355
  397 Torsion                 13    20    29    48         175.94813
  398 Torsion                 13    20    30    49         -58.64629
  399 Torsion                 13    20    30    50        -178.73272
  400 Torsion                 13    20    30    51          61.57772
  401 Torsion                 14     8    13    19          -2.43455
  402 Torsion                 14     8    13    20         177.67927
  403 Torsion                 14    21    27    19          -1.28296
  404 Torsion                 14    21    27    45         179.22320
  405 Torsion                 14    22    33    52          58.94984
  406 Torsion                 14    22    33    53         -61.54705
  407 Torsion                 14    22    33    54         178.68154
  408 Torsion                 14    22    34    55         -55.60854
  409 Torsion                 14    22    34    56        -176.21465
  410 Torsion                 14    22    34    57          64.13681
  411 Torsion                 17    10    18    25           2.10747
  412 Torsion                 17    10    18    26        -174.94711
  413 Torsion                 17    23    36    25           0.83527
  414 Torsion                 17    23    36    58        -179.42764
  415 Torsion                 17    24    38    59          56.64688
  416 Torsion                 17    24    38    60         -63.37951
  417 Torsion                 17    24    38    61         177.21186
  418 Torsion                 17    24    39    62         -56.39429
  419 Torsion                 17    24    39    63        -177.02885
  420 Torsion                 17    24    39    64          63.16975
  421 Torsion                 18    10    17    23          -2.00351
  422 Torsion                 18    10    17    24         178.35191
  423 Torsion                 18    25    36    23          -0.72228
  424 Torsion                 18    25    36    58         179.54051
  425 Torsion                 18    26    42    65          52.24256
  426 Torsion                 18    26    42    66         -68.12416
  427 Torsion                 18    26    42    67         173.42941
  428 Torsion                 18    26    43    68         -55.41630
  429 Torsion                 18    26    43    69        -176.53933
  430 Torsion                 18    26    43    70          64.15988
  431 Torsion                 19    13    20    29          60.33391
  432 Torsion                 19    13    20    30         -64.28091
  433 Torsion                 19    13    20    31         178.36328
  434 Torsion                 19    27    21    32         179.03915
  435 Torsion                 20    13    19    27        -179.18443
  436 Torsion                 20    13    19    28           1.07320
  437 Torsion                 21    14    22    33          60.02533
  438 Torsion                 21    14    22    34         -64.41299
  439 Torsion                 21    14    22    35         177.39731
  440 Torsion                 21    27    19    28        -179.36421
  441 Torsion                 22    14    21    27         179.15931
  442 Torsion                 22    14    21    32          -1.16268
  443 Torsion                 23    17    24    38          59.69831
  444 Torsion                 23    17    24    39         -64.81846
  445 Torsion                 23    17    24    40         178.01310
  446 Torsion                 23    36    25    41         179.58111
  447 Torsion                 24    17    23    36        -179.85086
  448 Torsion                 24    17    23    37           0.74386
  449 Torsion                 25    18    26    42          49.37913
  450 Torsion                 25    18    26    43         -74.27770
  451 Torsion                 25    18    26    44         167.69943
  452 Torsion                 25    36    23    37        -179.76013
  453 Torsion                 26    18    25    36         176.39081
  454 Torsion                 26    18    25    41          -3.91244
  455 Torsion                 28    19    27    45           0.12987
  456 Torsion                 29    20    30    49         176.93796
  457 Torsion                 29    20    30    50          56.85154
  458 Torsion                 29    20    30    51         -62.83802
  459 Torsion                 30    20    29    46        -179.82038
  460 Torsion                 30    20    29    47          60.14323
  461 Torsion                 30    20    29    48         -59.42509
  462 Torsion                 31    20    29    46         -62.26788
  463 Torsion                 31    20    29    47         177.69573
  464 Torsion                 31    20    29    48          58.12741
  465 Torsion                 31    20    30    49          58.94399
  466 Torsion                 31    20    30    50         -61.14244
  467 Torsion                 31    20    30    51         179.16800
  468 Torsion                 32    21    27    45          -0.45469
  469 Torsion                 33    22    34    55         179.73191
  470 Torsion                 33    22    34    56          59.12580
  471 Torsion                 33    22    34    57         -60.52274
  472 Torsion                 34    22    33    52        -177.07279
  473 Torsion                 34    22    33    53          62.43031
  474 Torsion                 34    22    33    54         -57.34110
  475 Torsion                 35    22    33    52         -59.06273
  476 Torsion                 35    22    33    53        -179.55963
  477 Torsion                 35    22    33    54          60.66896
  478 Torsion                 35    22    34    55          62.47373
  479 Torsion                 35    22    34    56         -58.13237
  480 Torsion                 35    22    34    57        -177.78091
  481 Torsion                 37    23    36    58          -0.02304
  482 Torsion                 38    24    39    62         179.03160
  483 Torsion                 38    24    39    63          58.39704
  484 Torsion                 38    24    39    64         -61.40436
  485 Torsion                 39    24    38    59        -179.11248
  486 Torsion                 39    24    38    60          60.86113
  487 Torsion                 39    24    38    61         -58.54750
  488 Torsion                 40    24    38    59         -61.64463
  489 Torsion                 40    24    38    60         178.32898
  490 Torsion                 40    24    38    61          58.92035
  491 Torsion                 40    24    39    62          61.15951
  492 Torsion                 40    24    39    63         -59.47505
  493 Torsion                 40    24    39    64        -179.27645
  494 Torsion                 41    25    36    58          -0.15609
  495 Torsion                 42    26    43    68         179.56577
  496 Torsion                 42    26    43    69          58.44274
  497 Torsion                 42    26    43    70         -60.85804
  498 Torsion                 43    26    42    65         175.59561
  499 Torsion                 43    26    42    66          55.22888
  500 Torsion                 43    26    42    67         -63.21755
  501 Torsion                 44    26    42    65         -66.36463
  502 Torsion                 44    26    42    66         173.26864
  503 Torsion                 44    26    42    67          54.82221
  504 Torsion                 44    26    43    68          62.21555
  505 Torsion                 44    26    43    69         -58.90748
  506 Torsion                 44    26    43    70        -178.20827
  507 Torsion                 71     1    77    76         164.78771
  508 Torsion                 71     1    77    78         -15.66354
  509 Torsion                 71     3     1    77        -116.63757
  510 Torsion                 71    83    84    86        -178.12324
  511 Torsion                 71    83    84    87           2.95940
  512 Torsion                 71    83    85    88         178.06103
  513 Torsion                 71    83    85    89          -3.11060
  514 Torsion                 72    73    76    77           0.17217
  515 Torsion                 72    73    76    79        -179.51128
  516 Torsion                 72    75    78    77           0.96192
  517 Torsion                 72    75    78    80        -179.15503
  518 Torsion                 73    72    75    74        -178.98258
  519 Torsion                 73    72    75    78           0.58515
  520 Torsion                 73    76    77    78           1.34666
  521 Torsion                 74    75    72    81           0.47773
  522 Torsion                 74    75    78    77        -179.46693
  523 Torsion                 74    75    78    80           0.41611
  524 Torsion                 75    72    73    76          -1.14813
  525 Torsion                 75    72    73    82         179.28594
  526 Torsion                 75    78    77    76          -1.90599
  527 Torsion                 76    73    72    81         179.39207
  528 Torsion                 76    77    78    80         178.21387
  529 Torsion                 77     1    71    83         -22.77749
  530 Torsion                 77     1    71    94        -159.44477
  531 Torsion                 77    76    73    82         179.74098
  532 Torsion                 78    75    72    81        -179.95454
  533 Torsion                 78    77    76    79        -178.95972
  534 Torsion                 79    76    73    82           0.05754
  535 Torsion                 81    72    73    82          -0.17386
  536 Torsion                 83    71    94    95         -65.92974
  537 Torsion                 83    71    94    96          53.85224
  538 Torsion                 83    71    94    97         174.29080
  539 Torsion                 83    84    86    90           0.53309
  540 Torsion                 83    84    86    91        -179.45422
  541 Torsion                 83    85    88    90          -0.39963
  542 Torsion                 83    85    88    92         179.38845
  543 Torsion                 84    83    71    94          80.75863
  544 Torsion                 84    83    85    88           1.20126
  545 Torsion                 84    83    85    89        -179.97037
  546 Torsion                 84    86    90    88           0.25834
  547 Torsion                 84    86    90    93        -179.96126
  548 Torsion                 85    83    71    94         -96.12546
  549 Torsion                 85    83    84    86          -1.26902
  550 Torsion                 85    83    84    87         179.81362
  551 Torsion                 85    88    90    86          -0.32535
  552 Torsion                 85    88    90    93         179.89450
  553 Torsion                 86    90    88    92         179.88760
  554 Torsion                 87    84    86    90         179.43363
  555 Torsion                 87    84    86    91          -0.55368
  556 Torsion                 88    90    86    91        -179.75440
  557 Torsion                 89    85    88    90        -179.20179
  558 Torsion                 89    85    88    92           0.58628
  559 Torsion                 91    86    90    93           0.02600
  560 Torsion                 92    88    90    93           0.10745


            XYZ format geometry
            -------------------
    97
 geometry
 C                     1.79931423     0.50289911    -1.54099510
 O                     1.49254479     1.25008408    -2.47896309
 Ni                    0.20196356    -0.35194223    -0.60908492
 C                    -1.32607714     0.21796519     0.29516193
 N                    -2.22382530    -0.66769965     0.78316360
 N                    -1.83526766     1.44048256     0.52132386
 C                    -3.35151739    -0.04943850     1.47705064
 C                    -1.97112602    -2.07033403     0.79189575
 C                    -3.19401455     1.41726079     1.06688689
 C                    -1.21681610     2.65772785     0.10236677
 H                    -4.29878343    -0.48192576     1.15154789
 H                    -3.26507184    -0.19217174     2.55951772
 C                    -2.46801338    -2.85079632    -0.25695172
 C                    -1.21589628    -2.62508505     1.83069297
 H                    -3.91411345     1.70963417     0.29667519
 H                    -3.28950272     2.10932746     1.90435333
 C                    -0.51678094     3.40554088     1.05279575
 C                    -1.34219009     3.07504789    -1.22668525
 C                    -2.14948997    -4.20451395    -0.27611287
 C                    -3.32917872    -2.25672298    -1.35341597
 C                    -0.92673477    -3.98466706     1.77768182
 C                    -0.72843110    -1.79198701     2.99960033
 C                     0.10307292     4.57837841     0.63693830
 C                    -0.41472509     2.96732025     2.50055052
 C                    -0.70496282     4.25262444    -1.59993734
 C                    -2.19563036     2.31928205    -2.22671641
 C                    -1.37769581    -4.76693535     0.72692091
 H                    -2.50636206    -4.82620266    -1.08849860
 C                    -4.70462416    -2.92595435    -1.39275744
 C                    -2.63324442    -2.33599351    -2.71214099
 H                    -3.47451374    -1.19937527    -1.12453669
 H                    -0.33654080    -4.43657657     2.56617575
 C                     0.79547945    -1.81234775     3.11068394
 C                    -1.38694197    -2.25798697     4.30070365
 H                    -1.02104837    -0.75563675     2.82129328
 C                     0.01739136     4.99470335    -0.68035512
 H                     0.66717350     5.16729410     1.35043197
 C                    -1.00023328     4.01896567     3.44495397
 C                     1.03037152     2.63575408     2.86667765
 H                    -0.99692333     2.05046558     2.61560407
 H                    -0.77049899     4.59183766    -2.62595890
 C                    -1.48545260     2.09642628    -3.56132790
 C                    -3.52157482     3.05717849    -2.44303908
 H                    -2.41235201     1.33519093    -1.80507761
 H                    -1.13346159    -5.82139475     0.69374416
 H                    -5.20238186    -2.86622915    -0.42304536
 H                    -4.62251768    -3.98174175    -1.65866414
 H                    -5.34190591    -2.44421517    -2.13643118
 H                    -1.67838583    -1.80827690    -2.68358801
 H                    -3.25513679    -1.88460393    -3.48791519
 H                    -2.44337858    -3.37368372    -2.99670556
 H                     1.24871176    -1.42925233     2.19527586
 H                     1.16857920    -2.82471198     3.28311746
 H                     1.12430518    -1.18783253     3.94397565
 H                    -2.47594041    -2.23932276     4.22396588
 H                    -1.08938058    -1.61779672     5.13311013
 H                    -1.09120243    -3.28111287     4.54271914
 H                     0.51303816     5.90567115    -0.99231719
 H                    -2.03849626     4.24699689     3.19560172
 H                    -0.43542514     4.95180403     3.39264107
 H                    -0.96351512     3.66652942     4.47771923
 H                     1.43353617     1.87367515     2.19947023
 H                     1.09404321     2.27017893     3.89455871
 H                     1.66743258     3.51908771     2.78426729
 H                    -0.50695943     1.64214800    -3.41104426
 H                    -1.34356975     3.03868052    -4.09604161
 H                    -2.09298489     1.45109473    -4.20042756
 H                    -4.05528984     3.22363082    -1.50507085
 H                    -4.17125099     2.49192864    -3.11461877
 H                    -3.34028562     4.03539574    -2.89462559
 N                     1.64906974    -0.93799798    -1.73164024
 C                     4.28807167     2.26829764     1.49740805
 C                     3.80283030     2.99408605     0.41893928
 H                     4.29925575     0.35674637     2.47330566
 C                     3.94121946     0.93104562     1.62771808
 C                     3.00020056     2.38253424    -0.52976706
 C                     2.66126283     1.03227280    -0.42029324
 C                     3.12799614     0.31806870     0.68579268
 H                     2.62045845     2.93195169    -1.38009221
 H                     2.86774841    -0.71961054     0.82702861
 H                     4.92369481     2.74204804     2.23487081
 H                     4.05515275     4.04173987     0.30954713
 C                     2.61276434    -1.89344563    -1.24436220
 C                     3.93823643    -1.79986525    -1.64333326
 C                     2.19309061    -2.93644118    -0.43226339
 C                     4.85548844    -2.74269036    -1.20464902
 H                     4.24519504    -0.97892047    -2.28040994
 C                     3.11438580    -3.87855272     0.00321920
 H                     1.15038317    -2.98750128    -0.13427512
 C                     4.44594641    -3.78136142    -0.37904211
 H                     5.89160745    -2.66603007    -1.50781373
 H                     2.79056291    -4.68797557     0.64542040
 H                     5.16369602    -4.51578055    -0.03732155
 C                     1.20446317    -1.31128895    -3.08969995
 H                     2.03645371    -1.22870636    -3.79364191
 H                     0.85139217    -2.34099855    -3.05870944
 H                     0.40818062    -0.64708431    -3.40771722

 ==============================================================================
                                internuclear distances
 ------------------------------------------------------------------------------
       center one      |      center two      | atomic units |  angstroms
 ------------------------------------------------------------------------------
    2 O                |   1 C                |     2.33912  |     1.23781
    3 Ni               |   1 C                |     3.85001  |     2.03734
    4 C                |   3 Ni               |     3.52390  |     1.86477
    5 N                |   4 C                |     2.55533  |     1.35222
    6 N                |   4 C                |     2.53883  |     1.34349
    7 C                |   5 N                |     2.76147  |     1.46131
    8 C                |   5 N                |     2.69332  |     1.42524
    9 C                |   6 N                |     2.76725  |     1.46437
    9 C                |   7 C                |     2.89335  |     1.53109
   10 C                |   6 N                |     2.69887  |     1.42818
   11 H                |   7 C                |     2.06172  |     1.09101
   12 H                |   7 C                |     2.06973  |     1.09525
   13 C                |   8 C                |     2.64298  |     1.39861
   14 C                |   8 C                |     2.64374  |     1.39901
   15 H                |   9 C                |     2.06772  |     1.09419
   16 H                |   9 C                |     2.06095  |     1.09061
   17 C                |  10 C                |     2.64061  |     1.39735
   18 C                |  10 C                |     2.64309  |     1.39866
   19 C                |  13 C                |     2.62827  |     1.39082
   20 C                |  13 C                |     2.86389  |     1.51551
   21 C                |  14 C                |     2.62861  |     1.39100
   22 C                |  14 C                |     2.86468  |     1.51592
   23 C                |  17 C                |     2.62713  |     1.39022
   24 C                |  17 C                |     2.86494  |     1.51606
   25 C                |  18 C                |     2.62669  |     1.38999
   26 C                |  18 C                |     2.86567  |     1.51644
   27 C                |  19 C                |     2.61716  |     1.38494
   27 C                |  21 C                |     2.61808  |     1.38543
   28 H                |  19 C                |     2.04739  |     1.08343
   29 C                |  20 C                |     2.89151  |     1.53012
   30 C                |  20 C                |     2.88871  |     1.52864
   31 H                |  20 C                |     2.06274  |     1.09155
   32 H                |  21 C                |     2.04778  |     1.08364
   33 C                |  22 C                |     2.88767  |     1.52809
   34 C                |  22 C                |     2.89299  |     1.53090
   35 H                |  22 C                |     2.06269  |     1.09153
   36 C                |  23 C                |     2.61570  |     1.38417
   36 C                |  25 C                |     2.61719  |     1.38496
   37 H                |  23 C                |     2.04763  |     1.08356
   38 C                |  24 C                |     2.89114  |     1.52993
   39 C                |  24 C                |     2.88596  |     1.52718
   40 H                |  24 C                |     2.06388  |     1.09216
   41 H                |  25 C                |     2.04587  |     1.08263
   42 C                |  26 C                |     2.88776  |     1.52814
   43 C                |  26 C                |     2.89653  |     1.53278
   44 H                |  26 C                |     2.06420  |     1.09233
   45 H                |  27 C                |     2.04635  |     1.08288
   46 H                |  29 C                |     2.06289  |     1.09164
   47 H                |  29 C                |     2.06330  |     1.09185
   48 H                |  29 C                |     2.06253  |     1.09144
   49 H                |  30 C                |     2.06236  |     1.09135
   50 H                |  30 C                |     2.06346  |     1.09194
   51 H                |  30 C                |     2.06476  |     1.09262
   52 H                |  33 C                |     2.06158  |     1.09094
   53 H                |  33 C                |     2.06475  |     1.09262
   54 H                |  33 C                |     2.06363  |     1.09203
   55 H                |  34 C                |     2.06331  |     1.09186
   56 H                |  34 C                |     2.06256  |     1.09146
   57 H                |  34 C                |     2.06389  |     1.09216
   58 H                |  36 C                |     2.04654  |     1.08298
   59 H                |  38 C                |     2.06332  |     1.09186
   60 H                |  38 C                |     2.06312  |     1.09176
   61 H                |  38 C                |     2.06332  |     1.09186
   62 H                |  39 C                |     2.06012  |     1.09017
   63 H                |  39 C                |     2.06512  |     1.09281
   64 H                |  39 C                |     2.06397  |     1.09221
   65 H                |  42 C                |     2.05833  |     1.08922
   66 H                |  42 C                |     2.06482  |     1.09265
   67 H                |  42 C                |     2.06491  |     1.09270
   68 H                |  43 C                |     2.06348  |     1.09194
   69 H                |  43 C                |     2.06370  |     1.09206
   70 H                |  43 C                |     2.06465  |     1.09257
   71 N                |   1 C                |     2.76127  |     1.46120
   71 N                |   3 Ni               |     3.63383  |     1.92294
   73 C                |  72 C                |     2.62211  |     1.38756
   75 C                |  72 C                |     2.62225  |     1.38763
   75 C                |  74 H                |     2.04669  |     1.08306
   76 C                |  73 C                |     2.61729  |     1.38501
   77 C                |   1 C                |     2.85290  |     1.50969
   77 C                |  76 C                |     2.63891  |     1.39645
   78 C                |  75 C                |     2.62141  |     1.38719
   78 C                |  77 C                |     2.63977  |     1.39691
   79 H                |  76 C                |     2.04328  |     1.08126
   80 H                |  78 C                |     2.03920  |     1.07910
   81 H                |  72 C                |     2.04607  |     1.08273
   82 H                |  73 C                |     2.04685  |     1.08315
   83 C                |  71 N                |     2.72476  |     1.44188
   84 C                |  83 C                |     2.62176  |     1.38738
   85 C                |  83 C                |     2.62085  |     1.38689
   86 C                |  84 C                |     2.62033  |     1.38662
   87 H                |  84 C                |     2.04758  |     1.08353
   88 C                |  85 C                |     2.62257  |     1.38781
   89 H                |  85 C                |     2.05159  |     1.08565
   90 C                |  86 C                |     2.62406  |     1.38859
   90 C                |  88 C                |     2.62435  |     1.38875
   91 H                |  86 C                |     2.04521  |     1.08228
   92 H                |  88 C                |     2.04619  |     1.08280
   93 H                |  90 C                |     2.04519  |     1.08227
   94 C                |  71 N                |     2.79101  |     1.47694
   95 H                |  94 C                |     2.06540  |     1.09296
   96 H                |  94 C                |     2.05791  |     1.08900
   97 H                |  94 C                |     2.04961  |     1.08461
 ------------------------------------------------------------------------------
                         number of included internuclear distances:        102
 ==============================================================================



 ==============================================================================
                                 internuclear angles
 ------------------------------------------------------------------------------
        center 1       |       center 2       |       center 3       |  degrees
 ------------------------------------------------------------------------------
    2 O                |   1 C                |   3 Ni               |   113.93
    2 O                |   1 C                |  71 N                |   118.09
    2 O                |   1 C                |  77 C                |   119.50
    1 C                |  71 N                |   3 Ni               |    72.58
    3 Ni               |   1 C                |  77 C                |   104.79
   71 N                |   1 C                |  77 C                |   120.09
    1 C                |   3 Ni               |   4 C                |   137.39
    3 Ni               |  71 N                |   1 C                |    72.58
    4 C                |   3 Ni               |  71 N                |   173.16
    3 Ni               |   4 C                |   5 N                |   121.26
    3 Ni               |   4 C                |   6 N                |   132.09
    5 N                |   4 C                |   6 N                |   106.48
    4 C                |   5 N                |   7 C                |   113.99
    4 C                |   5 N                |   8 C                |   121.94
    7 C                |   5 N                |   8 C                |   123.39
    4 C                |   6 N                |   9 C                |   113.58
    4 C                |   6 N                |  10 C                |   124.20
    9 C                |   6 N                |  10 C                |   121.64
    5 N                |   7 C                |   9 C                |   101.46
    5 N                |   7 C                |  11 H                |   111.14
    5 N                |   7 C                |  12 H                |   110.69
    9 C                |   7 C                |  11 H                |   112.90
    9 C                |   7 C                |  12 H                |   112.43
   11 H                |   7 C                |  12 H                |   108.16
    5 N                |   8 C                |  13 C                |   118.79
    5 N                |   8 C                |  14 C                |   119.37
   13 C                |   8 C                |  14 C                |   121.83
    6 N                |   9 C                |   7 C                |   102.15
    6 N                |   9 C                |  15 H                |   110.13
    6 N                |   9 C                |  16 H                |   110.93
    7 C                |   9 C                |  15 H                |   112.14
    7 C                |   9 C                |  16 H                |   113.15
   15 H                |   9 C                |  16 H                |   108.26
    6 N                |  10 C                |  17 C                |   118.26
    6 N                |  10 C                |  18 C                |   119.62
   17 C                |  10 C                |  18 C                |   122.11
    8 C                |  13 C                |  19 C                |   118.17
    8 C                |  13 C                |  20 C                |   121.72
   19 C                |  13 C                |  20 C                |   120.11
    8 C                |  14 C                |  21 C                |   118.13
    8 C                |  14 C                |  22 C                |   121.89
   21 C                |  14 C                |  22 C                |   119.98
   10 C                |  17 C                |  23 C                |   118.12
   10 C                |  17 C                |  24 C                |   121.91
   23 C                |  17 C                |  24 C                |   119.97
   10 C                |  18 C                |  25 C                |   117.83
   10 C                |  18 C                |  26 C                |   121.90
   25 C                |  18 C                |  26 C                |   120.21
   13 C                |  19 C                |  27 C                |   120.86
   13 C                |  19 C                |  28 H                |   119.56
   27 C                |  19 C                |  28 H                |   119.58
   13 C                |  20 C                |  29 C                |   110.97
   13 C                |  20 C                |  30 C                |   111.35
   13 C                |  20 C                |  31 H                |   107.68
   29 C                |  20 C                |  30 C                |   111.33
   29 C                |  20 C                |  31 H                |   108.02
   30 C                |  20 C                |  31 H                |   107.29
   14 C                |  21 C                |  27 C                |   120.87
   14 C                |  21 C                |  32 H                |   119.54
   27 C                |  21 C                |  32 H                |   119.58
   14 C                |  22 C                |  33 C                |   111.68
   14 C                |  22 C                |  34 C                |   110.47
   14 C                |  22 C                |  35 H                |   108.04
   33 C                |  22 C                |  34 C                |   111.29
   33 C                |  22 C                |  35 H                |   106.97
   34 C                |  22 C                |  35 H                |   108.21
   17 C                |  23 C                |  36 C                |   120.72
   17 C                |  23 C                |  37 H                |   119.58
   36 C                |  23 C                |  37 H                |   119.70
   17 C                |  24 C                |  38 C                |   111.41
   17 C                |  24 C                |  39 C                |   110.82
   17 C                |  24 C                |  40 H                |   107.90
   38 C                |  24 C                |  39 C                |   111.31
   38 C                |  24 C                |  40 H                |   107.94
   39 C                |  24 C                |  40 H                |   107.27
   18 C                |  25 C                |  36 C                |   120.98
   18 C                |  25 C                |  41 H                |   119.48
   36 C                |  25 C                |  41 H                |   119.53
   18 C                |  26 C                |  42 C                |   112.77
   18 C                |  26 C                |  43 C                |   109.88
   18 C                |  26 C                |  44 H                |   107.82
   42 C                |  26 C                |  43 C                |   110.42
   42 C                |  26 C                |  44 H                |   107.33
   43 C                |  26 C                |  44 H                |   108.45
   19 C                |  27 C                |  21 C                |   120.09
   19 C                |  27 C                |  45 H                |   119.93
   21 C                |  27 C                |  45 H                |   119.98
   20 C                |  29 C                |  46 H                |   111.29
   20 C                |  29 C                |  47 H                |   111.20
   20 C                |  29 C                |  48 H                |   110.45
   46 H                |  29 C                |  47 H                |   107.67
   46 H                |  29 C                |  48 H                |   108.35
   47 H                |  29 C                |  48 H                |   107.74
   20 C                |  30 C                |  49 H                |   110.49
   20 C                |  30 C                |  50 H                |   110.53
   20 C                |  30 C                |  51 H                |   111.09
   49 H                |  30 C                |  50 H                |   108.48
   49 H                |  30 C                |  51 H                |   108.30
   50 H                |  30 C                |  51 H                |   107.85
   22 C                |  33 C                |  52 H                |   110.40
   22 C                |  33 C                |  53 H                |   111.37
   22 C                |  33 C                |  54 H                |   110.37
   52 H                |  33 C                |  53 H                |   108.42
   52 H                |  33 C                |  54 H                |   108.32
   53 H                |  33 C                |  54 H                |   107.86
   22 C                |  34 C                |  55 H                |   111.35
   22 C                |  34 C                |  56 H                |   110.63
   22 C                |  34 C                |  57 H                |   110.92
   55 H                |  34 C                |  56 H                |   108.39
   55 H                |  34 C                |  57 H                |   107.56
   56 H                |  34 C                |  57 H                |   107.86
   23 C                |  36 C                |  25 C                |   120.20
   23 C                |  36 C                |  58 H                |   119.92
   25 C                |  36 C                |  58 H                |   119.88
   24 C                |  38 C                |  59 H                |   111.50
   24 C                |  38 C                |  60 H                |   111.09
   24 C                |  38 C                |  61 H                |   110.43
   59 H                |  38 C                |  60 H                |   107.61
   59 H                |  38 C                |  61 H                |   108.39
   60 H                |  38 C                |  61 H                |   107.68
   24 C                |  39 C                |  62 H                |   110.79
   24 C                |  39 C                |  63 H                |   110.69
   24 C                |  39 C                |  64 H                |   110.99
   62 H                |  39 C                |  63 H                |   108.68
   62 H                |  39 C                |  64 H                |   107.67
   63 H                |  39 C                |  64 H                |   107.91
   26 C                |  42 C                |  65 H                |   110.97
   26 C                |  42 C                |  66 H                |   111.22
   26 C                |  42 C                |  67 H                |   109.79
   65 H                |  42 C                |  66 H                |   108.09
   65 H                |  42 C                |  67 H                |   109.50
   66 H                |  42 C                |  67 H                |   107.17
   26 C                |  43 C                |  68 H                |   112.02
   26 C                |  43 C                |  69 H                |   110.62
   26 C                |  43 C                |  70 H                |   110.23
   68 H                |  43 C                |  69 H                |   108.44
   68 H                |  43 C                |  70 H                |   107.44
   69 H                |  43 C                |  70 H                |   107.94
    1 C                |  71 N                |   3 Ni               |    72.58
    1 C                |  71 N                |  83 C                |   122.73
    1 C                |  71 N                |  94 C                |   113.59
    3 Ni               |  71 N                |  83 C                |   120.51
    3 Ni               |  71 N                |  94 C                |   112.78
   83 C                |  71 N                |  94 C                |   110.15
   73 C                |  72 C                |  75 C                |   119.32
   73 C                |  72 C                |  81 H                |   120.39
   75 C                |  72 C                |  81 H                |   120.29
   72 C                |  73 C                |  76 C                |   120.27
   72 C                |  73 C                |  82 H                |   120.20
   76 C                |  73 C                |  82 H                |   119.53
   72 C                |  75 C                |  74 H                |   120.11
   72 C                |  75 C                |  78 C                |   120.57
   74 H                |  75 C                |  78 C                |   119.32
   73 C                |  76 C                |  77 C                |   120.92
   73 C                |  76 C                |  79 H                |   121.19
   77 C                |  76 C                |  79 H                |   117.89
    1 C                |  77 C                |  76 C                |   114.80
    1 C                |  77 C                |  78 C                |   126.82
   76 C                |  77 C                |  78 C                |   118.38
   75 C                |  78 C                |  77 C                |   120.50
   75 C                |  78 C                |  80 H                |   118.52
   77 C                |  78 C                |  80 H                |   120.98
   71 N                |  83 C                |  84 C                |   119.78
   71 N                |  83 C                |  85 C                |   119.60
   84 C                |  83 C                |  85 C                |   120.54
   83 C                |  84 C                |  86 C                |   119.68
   83 C                |  84 C                |  87 H                |   119.40
   86 C                |  84 C                |  87 H                |   120.92
   83 C                |  85 C                |  88 C                |   119.56
   83 C                |  85 C                |  89 H                |   119.13
   88 C                |  85 C                |  89 H                |   121.30
   84 C                |  86 C                |  90 C                |   120.11
   84 C                |  86 C                |  91 H                |   119.77
   90 C                |  86 C                |  91 H                |   120.12
   85 C                |  88 C                |  90 C                |   120.17
   85 C                |  88 C                |  92 H                |   119.67
   90 C                |  88 C                |  92 H                |   120.15
   86 C                |  90 C                |  88 C                |   119.92
   86 C                |  90 C                |  93 H                |   119.98
   88 C                |  90 C                |  93 H                |   120.10
   71 N                |  94 C                |  95 H                |   110.12
[...]
  ----- ------------  ---------------      ----- ------------  ---------------
     6      2.190353   1 C  s                 2      1.808696   1 C  s         
     3     -1.418746   1 C  s                 5     -1.199999   1 C  s         
     4      1.095650   1 C  s                 1     -1.058532   1 C  s         
   296      0.903651  22 C  s               292      0.889231  22 C  s         
   322     -0.878579  24 C  s               710      0.874621  77 C  pz        

 Vector  847  Occ=0.000000D+00  E= 6.330060D+01
              MO Center= -1.3D-02,  3.8D-01, -5.5D-01, r^2= 1.6D+01
   Bfn.  Coefficient  Atom+Function         Bfn.  Coefficient  Atom+Function  
  ----- ------------  ---------------      ----- ------------  ---------------
   352      1.383837  26 C  s               356      1.324585  26 C  s         
   353     -1.078625  26 C  s               262     -1.061944  20 C  s         
   266     -1.063398  20 C  s               697     -1.009080  77 C  s         
   701     -0.887121  77 C  s               773      0.883379  85 C  s         
   263      0.829159  20 C  s               355     -0.827329  26 C  s         

 Vector  848  Occ=0.000000D+00  E= 6.330816D+01
              MO Center=  1.4D+00, -1.3D+00, -2.3D-01, r^2= 1.3D+01
   Bfn.  Coefficient  Atom+Function         Bfn.  Coefficient  Atom+Function  
  ----- ------------  ---------------      ----- ------------  ---------------
   769      1.393011  85 C  s               773      1.365357  85 C  s         
   770     -1.084948  85 C  s               758     -1.012668  84 C  s         
   754     -0.931775  84 C  s               784      0.921258  86 C  s         
   142      0.843141   8 C  py              772     -0.828249  85 C  s         
   768     -0.817038  85 C  s               771      0.804017  85 C  s         

 Vector  849  Occ=0.000000D+00  E= 6.332614D+01
              MO Center=  2.2D+00,  8.9D-01,  2.7D-01, r^2= 8.9D+00
   Bfn.  Coefficient  Atom+Function         Bfn.  Coefficient  Atom+Function  
  ----- ------------  ---------------      ----- ------------  ---------------
   701      1.671360  77 C  s               697      1.644808  77 C  s         
   698     -1.283498  77 C  s               649     -1.013191  73 C  s         
   700     -1.008636  77 C  s               716     -0.973430  78 C  s         
   696     -0.964159  77 C  s               699      0.964407  77 C  s         
   712     -0.929800  78 C  s               653     -0.841892  73 C  s         

 Vector  850  Occ=0.000000D+00  E= 6.333027D+01
              MO Center=  3.0D+00,  1.0D+00,  2.2D-01, r^2= 3.7D+00
   Bfn.  Coefficient  Atom+Function         Bfn.  Coefficient  Atom+Function  
  ----- ------------  ---------------      ----- ------------  ---------------
   716      1.931584  78 C  s               712      1.804789  78 C  s         
   682     -1.535610  76 C  s               686     -1.453584  76 C  s         
   713     -1.409193  78 C  s               683      1.193144  76 C  s         
   715     -1.119850  78 C  s               710     -1.076596  77 C  pz        
   711     -1.057946  78 C  s               714      1.060428  78 C  s         

 Vector  851  Occ=0.000000D+00  E= 6.340289D+01
              MO Center= -1.6D+00, -2.1D+00,  8.7D-01, r^2= 6.6D+00
   Bfn.  Coefficient  Atom+Function         Bfn.  Coefficient  Atom+Function  
  ----- ------------  ---------------      ----- ------------  ---------------
   185      2.182830  13 C  s               200     -1.949389  14 C  s         
   143      1.929410   8 C  pz              181      1.669026  13 C  s         
   196     -1.663046  14 C  s               209      1.376875  14 C  pz        
   182     -1.312650  13 C  s               197      1.309478  14 C  s         
   194      1.302599  13 C  pz              296     -1.265315  22 C  s         

 Vector  852  Occ=0.000000D+00  E= 6.341870D+01
              MO Center= -1.5D+00, -2.4D+00,  6.6D-01, r^2= 7.0D+00
   Bfn.  Coefficient  Atom+Function         Bfn.  Coefficient  Atom+Function  
  ----- ------------  ---------------      ----- ------------  ---------------
   134      2.893678   8 C  s               130      1.861559   8 C  s         
   142     -1.578134   8 C  py              131     -1.467295   8 C  s         
   281     -1.312234  21 C  s               133     -1.296953   8 C  s         
   251     -1.205745  19 C  s               247     -1.170247  19 C  s         
   277     -1.175188  21 C  s               132      1.149282   8 C  s         

 Vector  853  Occ=0.000000D+00  E= 6.342455D+01
              MO Center= -1.1D+00,  2.6D+00, -3.2D-01, r^2= 6.6D+00
   Bfn.  Coefficient  Atom+Function         Bfn.  Coefficient  Atom+Function  
  ----- ------------  ---------------      ----- ------------  ---------------
   173      2.165037  10 C  pz              236      2.081569  18 C  s         
   245      1.931838  18 C  pz              221     -1.790999  17 C  s         
   232      1.646460  18 C  s               217     -1.468122  17 C  s         
   356      1.372275  26 C  s               233     -1.296344  18 C  s         
   218      1.156173  17 C  s               235     -1.097114  18 C  s         

 Vector  854  Occ=0.000000D+00  E= 6.344380D+01
              MO Center= -7.9D-01,  2.8D+00, -8.5D-02, r^2= 6.4D+00
   Bfn.  Coefficient  Atom+Function         Bfn.  Coefficient  Atom+Function  
  ----- ------------  ---------------      ----- ------------  ---------------
   164      2.977634  10 C  s               160      1.809687  10 C  s         
   161     -1.428007  10 C  s               230      1.336345  17 C  pz        
   221     -1.312244  17 C  s               163     -1.285842  10 C  s         
   172      1.283709  10 C  py              311     -1.229884  23 C  s         
   341     -1.177639  25 C  s               162      1.125362  10 C  s         

 Vector  855  Occ=0.000000D+00  E= 6.355222D+01
              MO Center=  3.3D+00, -2.6D+00, -7.8D-01, r^2= 3.3D+00
   Bfn.  Coefficient  Atom+Function         Bfn.  Coefficient  Atom+Function  
  ----- ------------  ---------------      ----- ------------  ---------------
   743      2.841385  83 C  s               773     -2.582405  85 C  s         
   806      2.351356  88 C  s               788      2.313004  86 C  s         
   758     -2.294234  84 C  s               824     -2.262715  90 C  s         
   780     -1.546880  85 C  px              739      1.390508  83 C  s         
   769     -1.283796  85 C  s               795     -1.208546  86 C  px        

 Vector  856  Occ=0.000000D+00  E= 6.357937D+01
              MO Center=  3.3D+00,  1.4D+00,  3.8D-01, r^2= 3.2D+00
   Bfn.  Coefficient  Atom+Function         Bfn.  Coefficient  Atom+Function  
  ----- ------------  ---------------      ----- ------------  ---------------
   716     -2.869855  78 C  s               701      2.776030  77 C  s         
   671      2.499831  75 C  s               653      2.362461  73 C  s         
   638     -2.328129  72 C  s               686     -2.337828  76 C  s         
   724     -1.893563  78 C  py              710      1.592319  77 C  pz        
   697      1.371160  77 C  s               712     -1.285184  78 C  s         

 Vector  857  Occ=0.000000D+00  E= 6.359140D+01
              MO Center= -1.6D+00, -3.0D+00,  7.8D-01, r^2= 3.2D+00
   Bfn.  Coefficient  Atom+Function         Bfn.  Coefficient  Atom+Function  
  ----- ------------  ---------------      ----- ------------  ---------------
   134      3.437822   8 C  s               200     -2.992021  14 C  s         
   185     -2.889254  13 C  s               281      2.650929  21 C  s         
   251      2.627001  19 C  s               371     -2.438978  27 C  s         
   142     -2.214254   8 C  py              209      1.679874  14 C  pz        
   194     -1.469624  13 C  pz              130      1.411197   8 C  s         

 Vector  858  Occ=0.000000D+00  E= 6.360917D+01
              MO Center= -7.7D-01,  3.5D+00, -2.4D-01, r^2= 2.5D+00
   Bfn.  Coefficient  Atom+Function         Bfn.  Coefficient  Atom+Function  
  ----- ------------  ---------------      ----- ------------  ---------------
   164      3.614076  10 C  s               236     -3.183918  18 C  s         
   221     -2.982424  17 C  s               311      2.784976  23 C  s         
   341      2.719582  25 C  s               458     -2.563363  36 C  s         
   230      2.121739  17 C  pz              172      2.035775  10 C  py        
   245     -1.579988  18 C  pz              350      1.572725  25 C  pz        

 Vector  859  Occ=0.000000D+00  E= 8.881942D+01
              MO Center= -1.6D+00, -5.8D-02,  3.6D-01, r^2= 3.5D+00
   Bfn.  Coefficient  Atom+Function         Bfn.  Coefficient  Atom+Function  
  ----- ------------  ---------------      ----- ------------  ---------------
    85      2.225442   5 N  s                86     -1.732376   5 N  s         
   142     -1.710992   8 C  py              100     -1.654880   6 N  s         
    89      1.495486   5 N  s                84      1.307366   5 N  s         
   101      1.288014   6 N  s                87      1.220977   5 N  s         
   172     -1.211178  10 C  py               88     -1.168343   5 N  s         

 Vector  860  Occ=0.000000D+00  E= 8.884365D+01
              MO Center=  9.9D-01, -5.3D-01, -1.3D+00, r^2= 3.6D+00
   Bfn.  Coefficient  Atom+Function         Bfn.  Coefficient  Atom+Function  
  ----- ------------  ---------------      ----- ------------  ---------------
   619      2.692721  71 N  s               620     -2.099943  71 N  s         
   623      1.953690  71 N  s               618      1.580832  71 N  s         
   621      1.494042  71 N  s               622     -1.458318  71 N  s         
   100     -1.222678   6 N  s               101      0.953059   6 N  s         
   751     -0.929301  83 C  py              104     -0.893262   6 N  s         

 Vector  861  Occ=0.000000D+00  E= 8.887816D+01
              MO Center= -1.8D+00,  4.3D-01,  5.2D-01, r^2= 2.2D+00
   Bfn.  Coefficient  Atom+Function         Bfn.  Coefficient  Atom+Function  
  ----- ------------  ---------------      ----- ------------  ---------------
   100      2.167687   6 N  s                85      1.947205   5 N  s         
   101     -1.693172   6 N  s               104      1.555162   6 N  s         
    86     -1.521113   5 N  s               172      1.381479  10 C  py        
    89      1.370984   5 N  s                99      1.271847   6 N  s         
   102      1.211216   6 N  s               103     -1.173133   6 N  s         

 Vector  862  Occ=0.000000D+00  E= 1.172051D+02
              MO Center=  2.0D-01, -3.5D-01, -6.1D-01, r^2= 3.7D-02
   Bfn.  Coefficient  Atom+Function         Bfn.  Coefficient  Atom+Function  
  ----- ------------  ---------------      ----- ------------  ---------------
    38      0.925227   3 Ni pz               36      0.516331   3 Ni px        
    41     -0.352742   3 Ni pz              724     -0.316838  78 C  py        
   671      0.313553  75 C  s               716     -0.244633  78 C  s         
   710      0.234053  77 C  pz              723     -0.220467  78 C  px        
   709      0.217437  77 C  py               14      0.202260   1 C  py        

 Vector  863  Occ=0.000000D+00  E= 1.172575D+02
              MO Center=  2.0D-01, -3.5D-01, -6.1D-01, r^2= 3.4D-02
   Bfn.  Coefficient  Atom+Function         Bfn.  Coefficient  Atom+Function  
  ----- ------------  ---------------      ----- ------------  ---------------
    37      1.057707   3 Ni py               40     -0.407147   3 Ni py        
     6     -0.393166   1 C  s               185      0.246710  13 C  s         
   208     -0.236130  14 C  py              623      0.229376  71 N  s         
   142      0.227434   8 C  py              281     -0.226820  21 C  s         
    43      0.222723   3 Ni py               14      0.219694   1 C  py        

 Vector  864  Occ=0.000000D+00  E= 1.173728D+02
              MO Center=  2.0D-01, -3.5D-01, -6.1D-01, r^2= 3.6D-02
   Bfn.  Coefficient  Atom+Function         Bfn.  Coefficient  Atom+Function  
  ----- ------------  ---------------      ----- ------------  ---------------
    36      0.925589   3 Ni px               38     -0.524534   3 Ni pz        
     6     -0.456160   1 C  s                39     -0.363776   3 Ni px        
   709     -0.307920  77 C  py               14      0.284045   1 C  py        
    35     -0.278001   3 Ni s                81      0.274159   4 C  px        
   750     -0.225838  83 C  px               82     -0.219888   4 C  py        

 Vector  865  Occ=0.000000D+00  E= 1.187322D+02
              MO Center=  1.5D+00,  1.2D+00, -2.5D+00, r^2= 5.8D-02
   Bfn.  Coefficient  Atom+Function         Bfn.  Coefficient  Atom+Function  
  ----- ------------  ---------------      ----- ------------  ---------------
    17      2.980140   2 O  s                18     -2.302041   2 O  s         
    16     -1.757483   2 O  s                19      1.519979   2 O  s         
    20     -1.267025   2 O  s                21      1.087671   2 O  s         
     6     -0.820886   1 C  s                14     -0.432620   1 C  py        
    15      0.399582   1 C  pz               13      0.288958   1 C  px        

 Vector  866  Occ=0.000000D+00  E= 6.704079D+02
              MO Center=  2.0D-01, -3.5D-01, -6.1D-01, r^2= 2.5D-02
   Bfn.  Coefficient  Atom+Function         Bfn.  Coefficient  Atom+Function  
  ----- ------------  ---------------      ----- ------------  ---------------
    32     28.707540   3 Ni s                33    -15.149872   3 Ni s         
    51     -7.281881   3 Ni dxx              54     -7.283553   3 Ni dyy       
    56     -7.283408   3 Ni dzz              31     -4.263207   3 Ni s         
    57      3.309931   3 Ni dxx              60      3.315857   3 Ni dyy       
    62      3.315295   3 Ni dzz              34      0.749108   3 Ni s         


 center of mass
 --------------
 x =   0.06746715 y =  -0.00745552 z =  -0.03141698

 moments of inertia (a.u.)
 ------------------
       23982.379150556622           0.000000000002          -0.000000000001
           0.000000000002       21727.042252249506          -0.000000000000
          -0.000000000001          -0.000000000000       29824.451280014157

     Multipole analysis of the density
     ---------------------------------

     L   x y z        total         alpha         beta         nuclear
     -   - - -        -----         -----         ----         -------
     0   0 0 0      0.000000   -172.000000   -172.000000    344.000000

     1   1 0 0     -1.035512      1.390523      1.390523     -3.816558
     1   0 1 0     -1.035367     -3.843055     -3.843055      6.650744
     1   0 0 1      1.200640     -5.154698     -5.154698     11.510036

     2   2 0 0   -204.339013  -3923.631356  -3923.631356   7642.923700
     2   1 1 0     -3.317613     -6.968768     -6.968768     10.619923
     2   1 0 1      1.718440    -52.002560    -52.002560    105.723560
     2   0 2 0   -206.434970  -4533.358852  -4533.358852   8860.282734
     2   0 1 1      3.551845     -4.588396     -4.588396     12.728638
     2   0 0 2   -213.567802  -2416.327067  -2416.327067   4619.086333


 Task  times  cpu:     1814.0s     wall:     1814.0s


                                NWChem Input Module
                                -------------------


 Summary of allocated global arrays
-----------------------------------
  No active global arrays


MA_summarize_allocated_blocks: starting scan ...
heap block 'gridpts', handle 109, address 0x62fd22bea160:
	type of elements:		double precision
	number of elements:		203677165
	address of client space:	0x62fd22bea1c0
	index for client space:		116214547
	total number of bytes:		1629417424
MA_summarize_allocated_blocks: scan completed: 1 heap block, 0 stack blocks
MA usage statistics:

	allocation statistics:
					      heap	     stack
					      ----	     -----
	current number of blocks	         1	         0
	maximum number of blocks	        37	        58
	current total bytes		1629417424	         0
	maximum total bytes		1649038152	  58903176
	maximum total K-bytes		   1649039	     58904
	maximum total M-bytes		      1650	        59


                                     CITATION
                                     --------
                Please cite the following reference when publishing
                           results obtained with NWChem:

          E. Apra, E. J. Bylaska, W. A. de Jong, N. Govind, K. Kowalski,
       T. P. Straatsma, M. Valiev, H. J. J. van Dam, Y. Alexeev, J. Anchell,
       V. Anisimov, F. W. Aquino, R. Atta-Fynn, J. Autschbach, N. P. Bauman,
     J. C. Becca, D. E. Bernholdt, K. Bhaskaran-Nair, S. Bogatko, P. Borowski,
         J. Boschen, J. Brabec, A. Bruner, E. Cauet, Y. Chen, G. N. Chuev,
      C. J. Cramer, J. Daily, M. J. O. Deegan, T. H. Dunning Jr., M. Dupuis,
   K. G. Dyall, G. I. Fann, S. A. Fischer, A. Fonari, H. Fruchtl, L. Gagliardi,
      J. Garza, N. Gawande, S. Ghosh, K. Glaesemann, A. W. Gotz, J. Hammond,
       V. Helms, E. D. Hermes, K. Hirao, S. Hirata, M. Jacquelin, L. Jensen,
   B. G. Johnson, H. Jonsson, R. A. Kendall, M. Klemm, R. Kobayashi, V. Konkov,
      S. Krishnamoorthy, M. Krishnan, Z. Lin, R. D. Lins, R. J. Littlefield,
      A. J. Logsdail, K. Lopata, W. Ma, A. V. Marenich, J. Martin del Campo,
   D. Mejia-Rodriguez, J. E. Moore, J. M. Mullin, T. Nakajima, D. R. Nascimento,
    J. A. Nichols, P. J. Nichols, J. Nieplocha, A. Otero-de-la-Roza, B. Palmer,
    A. Panyala, T. Pirojsirikul, B. Peng, R. Peverati, J. Pittner, L. Pollack,
   R. M. Richard, P. Sadayappan, G. C. Schatz, W. A. Shelton, D. W. Silverstein,
   D. M. A. Smith, T. A. Soares, D. Song, M. Swart, H. L. Taylor, G. S. Thomas,
            V. Tipparaju, D. G. Truhlar, K. Tsemekhman, T. Van Voorhis,
      A. Vazquez-Mayagoitia, P. Verma, O. Villa, A. Vishnu, K. D. Vogiatzis,
        D. Wang, J. H. Weare, M. J. Williamson, T. L. Windus, K. Wolinski,
        A. T. Wong, Q. Wu, C. Yang, Q. Yu, M. Zacharias, Z. Zhang, Y. Zhao,
                                and R. J. Harrison
                        "NWChem: Past, present, and future
                         J. Chem. Phys. 152, 184102 (2020)
                               doi:10.1063/5.0004997

                                      AUTHORS
                                      -------
  E. Apra, E. J. Bylaska, N. Govind, K. Kowalski, M. Valiev, D. Mejia-Rodriguez,
       A. Kunitsa, N. P. Bauman, A. Panyala, W. A. de Jong, T. P. Straatsma,
   H. J. J. van Dam, D. Wang, T. L. Windus, J. Hammond, J. Autschbach, A. Woods,
    K. Bhaskaran-Nair, J. Brabec, K. Lopata, S. A. Fischer, S. Krishnamoorthy,
     M. Jacquelin, W. Ma, M. Klemm, O. Villa, Y. Chen, V. Anisimov, F. Aquino,
     S. Hirata, M. T. Hackler, E. Hermes, L. Jensen, J. E. Moore, J. C. Becca,
      V. Konjkov, T. Risthaus, M. Malagoli, A. Marenich, A. Otero-de-la-Roza,
        J. Mullin, P. Nichols, R. Peverati, J. Pittner, Y. Zhao, P.-D. Fan,
        A. Fonari, M. J. Williamson, R. J. Harrison, J. R. Rehr, M. Dupuis,
     D. Silverstein, D. M. A. Smith, J. Nieplocha, V. Tipparaju, M. Krishnan,
     B. E. Van Kuiken, A. Vazquez-Mayagoitia, M. Swart, Q. Wu, T. Van Voorhis,
     A. A. Auer, M. Nooijen, L. D. Crosby, E. Brown, G. Cisneros, G. I. Fann,
   H. Fruchtl, J. Garza, K. Hirao, R. A. Kendall, J. A. Nichols, K. Tsemekhman,
    K. Wolinski, J. Anchell, D. E. Bernholdt, P. Borowski, T. Clark, D. Clerc,
   H. Dachsel, M. J. O. Deegan, K. Dyall, D. Elwood, E. Glendening, M. Gutowski,
   A. C. Hess, J. Jaffe, B. G. Johnson, J. Ju, R. Kobayashi, R. Kutteh, Z. Lin,
   R. Littlefield, X. Long, B. Meng, T. Nakajima, S. Niu, L. Pollack, M. Rosing,
   K. Glaesemann, G. Sandrone, M. Stave, H. Taylor, G. Thomas, J. H. van Lenthe,
                               A. T. Wong, Z. Zhang.

 Total times  cpu:     1814.6s     wall:     1814.6s
