 argument  1 = nwchem.in
  NWChem w/ OpenMP: maximum threads =    1
                                         
                                         


             Northwest Computational Chemistry Package (NWChem) 7.2.3
             --------------------------------------------------------


                    Environmental Molecular Sciences Laboratory
                       Pacific Northwest National Laboratory
                                Richland, WA 99352

                              Copyright (c) 1994-2022
                       Pacific Northwest National Laboratory
                            Battelle Memorial Institute

             NWChem is an open-source computational chemistry package
                        distributed under the terms of the
                      Educational Community License (ECL) 2.0
             A copy of the license is included with this distribution
                              in the LICENSE.TXT file

                                  ACKNOWLEDGMENT
                                  --------------

            This software and its documentation were developed at the
            EMSL at Pacific Northwest National Laboratory, a multiprogram
            national laboratory, operated for the U.S. Department of Energy
            by Battelle under Contract Number DE-AC05-76RL01830. Support
            for this work was provided by the Department of Energy Office
            of Biological and Environmental Research, Office of Basic
            Energy Sciences, and the Office of Advanced Scientific Computing.


           Job information
           ---------------

    hostname        = fe3557f52793
    program         = nwchem
    date            = Sat Jun 28 23:21:13 2025

    compiled        = Fri_May_02_22:05:35_2025
    source          = /opt/nwchem
    nwchem branch   = 7.2.3
    nwchem revision = N/A
    ga revision     = 5.9.1
    use scalapack   = T
    input           = nwchem.in
    prefix          = ni_singlepoint.
    data base       = ./ni_singlepoint.db
    status          = startup
    nproc           =        5
    time left       =     -1s



           Memory information
           ------------------

    heap     =    509724444 doubles =     3888.9 Mbytes
    stack    =    509724445 doubles =     3888.9 Mbytes
    global   =    291271111 doubles =     2222.2 Mbytes (distinct from heap & stack)
    total    =   1310720000 doubles =    10000.0 Mbytes
    verify   = yes
    hardfail = no 


           Directory information
           ---------------------

  0 permanent = .
  0 scratch   = .




                                NWChem Input Module
                                -------------------


                          Ni complex single-point energy
                          ------------------------------

 Scaling coordinates for geometry "geometry" by  1.889725989
 (inverse scale =  0.529177249)

 C1  symmetry detected

          ------
          auto-z
          ------
  no constraints, skipping    0.0000000000000000     
  no constraints, skipping    0.0000000000000000     


                             Geometry "geometry" -> ""
                             -------------------------

 Output coordinates in angstroms (scale by  1.889725989 to convert to a.u.)

  No.       Tag          Charge          X              Y              Z
 ---- ---------------- ---------- -------------- -------------- --------------
    1 C                    6.0000     1.82004807     0.41440469    -1.51092638
    2 O                    8.0000     1.55907996     1.21246467    -2.42204946
    3 Ni                  28.0000     0.16559585    -0.34866543    -0.64207236
    4 C                    6.0000    -1.30605163     0.31042284     0.29012319
    5 N                    7.0000    -2.23713091    -0.52451074     0.80202557
    6 N                    7.0000    -1.74674587     1.55894103     0.51248706
    7 C                    6.0000    -3.33078979     0.15403100     1.49411922
    8 C                    6.0000    -2.05683692    -1.93836940     0.80921310
    9 C                    6.0000    -3.09174104     1.61247630     1.08957098
   10 C                    6.0000    -1.06466452     2.74034853     0.08913523
   11 H                    1.0000    -4.29926369    -0.22369923     1.16243513
   12 H                    1.0000    -3.25820225     0.00283238     2.57610155
   13 C                    6.0000    -2.57050684    -2.68940653    -0.25321328
   14 C                    6.0000    -1.34969438    -2.53374161     1.85953477
   15 H                    1.0000    -3.80978772     1.95576136     0.33910550
   16 H                    1.0000    -3.12548627     2.30169011     1.93422360
   17 C                    6.0000    -0.31540080     3.44682834     1.03372184
   18 C                    6.0000    -1.17764704     3.16581066    -1.23835631
   19 C                    6.0000    -2.32734529    -4.05885892    -0.26710081
   20 C                    6.0000    -3.37438890    -2.04889106    -1.36686663
   21 C                    6.0000    -1.13748823    -3.90760079     1.81208541
   22 C                    6.0000    -0.82811622    -1.72586347     3.03135407
   23 C                    6.0000     0.35887454     4.58827741     0.61507814
   24 C                    6.0000    -0.22372894     3.00275439     2.48034001
   25 C                    6.0000    -0.48568564     4.31100180    -1.61438945
   26 C                    6.0000    -2.06882469     2.45161865    -2.23562893
   27 C                    6.0000    -1.61169903    -4.66390100     0.75250642
   28 H                    1.0000    -2.69963866    -4.65938527    -1.08841557
   29 C                    6.0000    -4.80072180    -2.60236888    -1.39559259
   30 C                    6.0000    -2.68671751    -2.21578889    -2.72169890
   31 H                    1.0000    -3.43068837    -0.97842894    -1.16132766
   32 H                    1.0000    -0.58744175    -4.39135686     2.61062673
   33 C                    6.0000     0.68608554    -1.86475124     3.18401343
   34 C                    6.0000    -1.55291386    -2.12102247     4.32041541
   35 H                    1.0000    -1.03285286    -0.67236205     2.83212437
   36 C                    6.0000     0.28063774     5.01367440    -0.69966076
   37 H                    1.0000     0.95848871     5.14574481     1.32485162
   38 C                    6.0000    -0.79400345     4.06523930     3.42252097
   39 C                    6.0000     1.21341065     2.64478800     2.85372964
   40 H                    1.0000    -0.82260495     2.09620892     2.59192359
   41 H                    1.0000    -0.54212514     4.65539464    -2.63918236
   42 C                    6.0000    -1.37479116     2.20615536    -3.57497931
   43 C                    6.0000    -3.36474577     3.24396091    -2.44003238
   44 H                    1.0000    -2.32281301     1.47529378    -1.81694757
   45 H                    1.0000    -1.42705210    -5.73054519     0.72377299
   46 H                    1.0000    -5.29469961    -2.47532541    -0.43039757
   47 H                    1.0000    -4.80401975    -3.66850056    -1.63162800
   48 H                    1.0000    -5.39387864    -2.09024511    -2.15533366
   49 H                    1.0000    -1.68691936    -1.77896964    -2.69892538
   50 H                    1.0000    -3.26226478    -1.71997012    -3.50601762
   51 H                    1.0000    -2.59454225    -3.27055065    -2.99114317
   52 H                    1.0000     1.19263832    -1.54588726     2.27242080
   53 H                    1.0000     0.97260208    -2.89777729     3.39462282
   54 H                    1.0000     1.04308250    -1.24457097     4.00878502
   55 H                    1.0000    -2.63469135    -2.01493946     4.21748425
   56 H                    1.0000    -1.22342092    -1.49792351     5.15379981
   57 H                    1.0000    -1.34715407    -3.16227906     4.57812085
   58 H                    1.0000     0.81757182     5.90018665    -1.01360491
   59 H                    1.0000    -1.82602230     4.31443112     3.16716785
   60 H                    1.0000    -0.21043147     4.98665479     3.37163209
   61 H                    1.0000    -0.77021129     3.71297220     4.45573561
   62 H                    1.0000     1.60757068     1.87715052     2.18768121
   63 H                    1.0000     1.26303506     2.27513533     3.88086740
   64 H                    1.0000     1.86702696     3.51676738     2.78008218
   65 H                    1.0000    -0.41222425     1.71707125    -3.42943490
   66 H                    1.0000    -1.20294477     3.14356200    -4.10937765
   67 H                    1.0000    -2.00796588     1.58352475    -4.21167919
   68 H                    1.0000    -3.88610578     3.42501210    -1.49783627
   69 H                    1.0000    -4.04071468     2.71029120    -3.11150904
   70 H                    1.0000    -3.14651234     4.21737318    -2.88563211
   71 N                    7.0000     1.58076219    -1.00968923    -1.76124403
   72 C                    6.0000     4.46494112     1.89188408     1.54856437
   73 C                    6.0000     4.05945852     2.67339202     0.47604296
   74 H                    1.0000     4.27814628    -0.02001013     2.50625328
   75 C                    6.0000     3.98423468     0.59530656     1.66474452
   76 C                    6.0000     3.20175512     2.15563771    -0.48048846
   77 C                    6.0000     2.73086193     0.84454658    -0.38677187
   78 C                    6.0000     3.11898402     0.07638169     0.71270637
   79 H                    1.0000     2.87907407     2.74948795    -1.32453311
   80 H                    1.0000     2.75372663    -0.93061601     0.84072777
   81 H                    1.0000     5.14314707     2.29160496     2.29185768
   82 H                    1.0000     4.41713292     3.69099186     0.37786448
   83 C                    6.0000     2.44868844    -2.05434822    -1.27469198
   84 C                    6.0000     3.76265447    -2.11904575    -1.71558223
   85 C                    6.0000     1.94399630    -3.02699263    -0.42419089
   86 C                    6.0000     4.58176034    -3.15265803    -1.28691985
   87 H                    1.0000     4.13787465    -1.35375455    -2.38450915
   88 C                    6.0000     2.76962364    -4.05479502     0.00958181
   89 H                    1.0000     0.91206883    -2.95646133    -0.09399636
   90 C                    6.0000     4.08838352    -4.11912738    -0.42043927
   91 H                    1.0000     5.60663575    -3.20417568    -1.63089348
   92 H                    1.0000     2.38016458    -4.80558392     0.68582160
   93 H                    1.0000     4.73042088    -4.92329500    -0.08499411
   94 C                    6.0000     1.15953999    -1.29842143    -3.14684059
   95 H                    1.0000     2.01250009    -1.21578039    -3.82500938
   96 H                    1.0000     0.76563155    -2.31319793    -3.17677055
   97 H                    1.0000     0.40000852    -0.58775553    -3.45383530

      Atomic Mass 
      ----------- 

      C                 12.000000
      O                 15.994910
      Ni                57.935300
      N                 14.003070
      H                  1.007825


 Effective nuclear repulsion energy (a.u.)    7255.9798757829

            Nuclear Dipole moment (a.u.) 
            ----------------------------
        X                 Y               Z
 ---------------- ---------------- ----------------
     0.0000000000     0.0000000000     0.0000000000



                                Z-matrix (autoz)
                                -------- 

 Units are Angstrom for bonds and degrees for angles

      Type          Name      I     J     K     L     M      Value
      ----------- --------  ----- ----- ----- ----- ----- ----------
    1 Stretch                  1     2                       1.23901
    2 Stretch                  1     3                       2.01851
    3 Stretch                  1    71                       1.46559
    4 Stretch                  1    77                       1.50941
    5 Stretch                  3     4                       1.86256
    6 Stretch                  3    71                       1.92151
    7 Stretch                  4     5                       1.35132
    8 Stretch                  4     6                       1.34256
    9 Stretch                  5     7                       1.46134
   10 Stretch                  5     8                       1.42533
   11 Stretch                  6     9                       1.46455
   12 Stretch                  6    10                       1.42835
   13 Stretch                  7     9                       1.53227
   14 Stretch                  7    11                       1.09116
   15 Stretch                  7    12                       1.09490
   16 Stretch                  8    13                       1.39881
   17 Stretch                  8    14                       1.39918
   18 Stretch                  9    15                       1.09391
   19 Stretch                  9    16                       1.09068
   20 Stretch                 10    17                       1.39741
   21 Stretch                 10    18                       1.39858
   22 Stretch                 13    19                       1.39094
   23 Stretch                 13    20                       1.51549
   24 Stretch                 14    21                       1.39096
   25 Stretch                 14    22                       1.51587
   26 Stretch                 17    23                       1.39026
   27 Stretch                 17    24                       1.51602
   28 Stretch                 18    25                       1.38985
   29 Stretch                 18    26                       1.51619
   30 Stretch                 19    27                       1.38486
   31 Stretch                 19    28                       1.08342
   32 Stretch                 20    29                       1.53022
   33 Stretch                 20    30                       1.52850
   34 Stretch                 20    31                       1.09147
   35 Stretch                 21    27                       1.38549
   36 Stretch                 21    32                       1.08362
   37 Stretch                 22    33                       1.52820
   38 Stretch                 22    34                       1.53074
   39 Stretch                 22    35                       1.09155
   40 Stretch                 23    36                       1.38406
   41 Stretch                 23    37                       1.08355
   42 Stretch                 24    38                       1.53029
   43 Stretch                 24    39                       1.52739
   44 Stretch                 24    40                       1.09221
   45 Stretch                 25    36                       1.38482
   46 Stretch                 25    41                       1.08259
   47 Stretch                 26    42                       1.52833
   48 Stretch                 26    43                       1.53264
   49 Stretch                 26    44                       1.09225
   50 Stretch                 27    45                       1.08289
   51 Stretch                 29    46                       1.09168
   52 Stretch                 29    47                       1.09195
   53 Stretch                 29    48                       1.09147
   54 Stretch                 30    49                       1.09130
   55 Stretch                 30    50                       1.09190
   56 Stretch                 30    51                       1.09253
   57 Stretch                 33    52                       1.09054
   58 Stretch                 33    53                       1.09252
   59 Stretch                 33    54                       1.09193
   60 Stretch                 34    55                       1.09183
   61 Stretch                 34    56                       1.09149
   62 Stretch                 34    57                       1.09223
   63 Stretch                 36    58                       1.08294
   64 Stretch                 38    59                       1.09195
   65 Stretch                 38    60                       1.09186
   66 Stretch                 38    61                       1.09187
   67 Stretch                 39    62                       1.09007
   68 Stretch                 39    63                       1.09276
   69 Stretch                 39    64                       1.09224
   70 Stretch                 42    65                       1.08946
   71 Stretch                 42    66                       1.09263
   72 Stretch                 42    67                       1.09269
   73 Stretch                 43    68                       1.09194
   74 Stretch                 43    69                       1.09207
   75 Stretch                 43    70                       1.09257
   76 Stretch                 71    83                       1.44269
   77 Stretch                 71    94                       1.47671
   78 Stretch                 72    73                       1.38761
   79 Stretch                 72    75                       1.38769
   80 Stretch                 72    81                       1.08269
   81 Stretch                 73    76                       1.38516
   82 Stretch                 73    82                       1.08309
   83 Stretch                 74    75                       1.08311
   84 Stretch                 75    78                       1.38720
   85 Stretch                 76    77                       1.39624
   86 Stretch                 76    79                       1.08129
   87 Stretch                 77    78                       1.39627
   88 Stretch                 78    80                       1.07882
   89 Stretch                 83    84                       1.38747
   90 Stretch                 83    85                       1.38712
   91 Stretch                 84    86                       1.38674
   92 Stretch                 84    87                       1.08348
   93 Stretch                 85    88                       1.38788
   94 Stretch                 85    89                       1.08576
   95 Stretch                 86    90                       1.38862
   96 Stretch                 86    91                       1.08229
   97 Stretch                 88    90                       1.38859
   98 Stretch                 88    92                       1.08290
   99 Stretch                 90    93                       1.08232
  100 Stretch                 94    95                       1.09283
  101 Stretch                 94    96                       1.08896
  102 Stretch                 94    97                       1.08452
  103 Bend                     1     3     4               136.82558
  104 Bend                     1     3    71                43.58824
  105 Bend                     1    71     3                71.72935
  106 Bend                     1    71    83               123.21477
  107 Bend                     1    71    94               113.37936
  108 Bend                     1    77    76               114.90497
  109 Bend                     1    77    78               126.68465
  110 Bend                     2     1     3               112.79225
  111 Bend                     2     1    71               117.76760
  112 Bend                     2     1    77               119.42037
  113 Bend                     3     1    71                64.68241
  114 Bend                     3     1    77               106.36415
  115 Bend                     3     4     5               121.02154
  116 Bend                     3     4     6               132.16965
  117 Bend                     3    71    83               119.71886
  118 Bend                     3    71    94               113.80918
  119 Bend                     4     5     7               114.09004
  120 Bend                     4     5     8               121.84673
  121 Bend                     4     6     9               113.62266
  122 Bend                     4     6    10               124.28703
  123 Bend                     5     4     6               106.59926
  124 Bend                     5     7     9               101.54634
  125 Bend                     5     7    11               111.07239
  126 Bend                     5     7    12               110.74918
  127 Bend                     5     8    13               118.83650
  128 Bend                     5     8    14               119.32795
  129 Bend                     6     9     7               102.26968
  130 Bend                     6     9    15               110.11884
  131 Bend                     6     9    16               110.89541
  132 Bend                     6    10    17               118.28472
  133 Bend                     6    10    18               119.62804
  134 Bend                     7     5     8               123.56433
  135 Bend                     7     9    15               112.17377
  136 Bend                     7     9    16               113.08980
  137 Bend                     8    13    19               118.16445
  138 Bend                     8    13    20               121.73550
  139 Bend                     8    14    21               118.14999
  140 Bend                     8    14    22               121.83083
  141 Bend                     9     6    10               121.67522
  142 Bend                     9     7    11               112.81182
  143 Bend                     9     7    12               112.45754
  144 Bend                    10    17    23               118.13721
  145 Bend                    10    17    24               121.96112
  146 Bend                    10    18    25               117.85569
  147 Bend                    10    18    26               121.90452
  148 Bend                    11     7    12               108.14502
  149 Bend                    13     8    14               121.82184
  150 Bend                    13    19    27               120.87308
  151 Bend                    13    19    28               119.55257
  152 Bend                    13    20    29               110.81521
  153 Bend                    13    20    30               111.50351
  154 Bend                    13    20    31               107.66736
  155 Bend                    14    21    27               120.86608
  156 Bend                    14    21    32               119.55359
  157 Bend                    14    22    33               111.69783
  158 Bend                    14    22    34               110.51700
  159 Bend                    14    22    35               107.98323
  160 Bend                    15     9    16               108.22052
  161 Bend                    17    10    18               122.08086
  162 Bend                    17    23    36               120.72897
  163 Bend                    17    23    37               119.57381
  164 Bend                    17    24    38               111.19803
  165 Bend                    17    24    39               111.02758
  166 Bend                    17    24    40               107.90607
  167 Bend                    18    25    36               120.98973
  168 Bend                    18    25    41               119.49051
  169 Bend                    18    26    42               112.65347
  170 Bend                    18    26    43               109.94962
  171 Bend                    18    26    44               107.79432
  172 Bend                    19    13    20               120.09996
  173 Bend                    19    27    21               120.09586
  174 Bend                    19    27    45               119.92886
  175 Bend                    20    29    46               111.28971
  176 Bend                    20    29    47               111.10125
  177 Bend                    20    29    48               110.48163
  178 Bend                    20    30    49               110.48576
  179 Bend                    20    30    50               110.48518
  180 Bend                    20    30    51               111.22161
  181 Bend                    21    14    22               120.01791
  182 Bend                    21    27    45               119.97453
  183 Bend                    22    33    52               110.49749
  184 Bend                    22    33    53               111.41022
  185 Bend                    22    33    54               110.35160
  186 Bend                    22    34    55               111.38693
  187 Bend                    22    34    56               110.65105
  188 Bend                    22    34    57               110.82993
  189 Bend                    23    17    24               119.90167
  190 Bend                    23    36    25               120.18421
  191 Bend                    23    36    58               119.93108
  192 Bend                    24    38    59               111.51035
  193 Bend                    24    38    60               110.98034
  194 Bend                    24    38    61               110.51727
  195 Bend                    24    39    62               110.84844
  196 Bend                    24    39    63               110.59688
  197 Bend                    24    39    64               111.06777
  198 Bend                    25    18    26               120.18560
  199 Bend                    25    36    58               119.88444
  200 Bend                    26    42    65               110.86991
  201 Bend                    26    42    66               111.23817
  202 Bend                    26    42    67               109.81694
  203 Bend                    26    43    68               111.98463
  204 Bend                    26    43    69               110.65517
  205 Bend                    26    43    70               110.24863
  206 Bend                    27    19    28               119.57395
  207 Bend                    27    21    32               119.57864
  208 Bend                    29    20    30               111.29811
  209 Bend                    29    20    31               108.07076
  210 Bend                    30    20    31               107.29029
  211 Bend                    33    22    34               111.19683
  212 Bend                    33    22    35               106.96548
  213 Bend                    34    22    35               108.30309
  214 Bend                    36    23    37               119.69533
  215 Bend                    36    25    41               119.51878
  216 Bend                    38    24    39               111.27500
  217 Bend                    38    24    40               108.00156
  218 Bend                    39    24    40               107.24243
  219 Bend                    42    26    43               110.49516
  220 Bend                    42    26    44               107.33491
  221 Bend                    43    26    44               108.45799
  222 Bend                    46    29    47               107.66020
  223 Bend                    46    29    48               108.35559
  224 Bend                    47    29    48               107.81872
  225 Bend                    49    30    50               108.42973
  226 Bend                    49    30    51               108.31799
  227 Bend                    50    30    51               107.80090
  228 Bend                    52    33    53               108.40890
  229 Bend                    52    33    54               108.26779
  230 Bend                    53    33    54               107.79958
  231 Bend                    55    34    56               108.39767
  232 Bend                    55    34    57               107.54897
  233 Bend                    56    34    57               107.89116
  234 Bend                    59    38    60               107.55717
  235 Bend                    59    38    61               108.39136
  236 Bend                    60    38    61               107.74135
  237 Bend                    62    39    63               108.64397
  238 Bend                    62    39    64               107.73513
  239 Bend                    63    39    64               107.83414
  240 Bend                    65    42    66               108.15133
  241 Bend                    65    42    67               109.51256
  242 Bend                    66    42    67               107.15822
  243 Bend                    68    43    69               108.42319
  244 Bend                    68    43    70               107.43124
  245 Bend                    69    43    70               107.95360
  246 Bend                    71     1    77               120.17395
  247 Bend                    71    83    84               119.75750
  248 Bend                    71    83    85               119.71180
  249 Bend                    71    94    95               110.17278
  250 Bend                    71    94    96               108.13003
  251 Bend                    71    94    97               109.70934
  252 Bend                    72    73    76               120.27641
  253 Bend                    72    73    82               120.17960
  254 Bend                    72    75    74               120.12213
  255 Bend                    72    75    78               120.53927
  256 Bend                    73    72    75               119.32141
  257 Bend                    73    72    81               120.38092
  258 Bend                    73    76    77               120.89546
  259 Bend                    73    76    79               121.23436
  260 Bend                    74    75    78               119.33755
  261 Bend                    75    72    81               120.29585
  262 Bend                    75    78    77               120.53077
  263 Bend                    75    78    80               118.61464
  264 Bend                    76    73    82               119.54276
  265 Bend                    76    77    78               118.40561
  266 Bend                    77    76    79               117.86956
  267 Bend                    77    78    80               120.85459
  268 Bend                    83    71    94               110.27152
  269 Bend                    83    84    86               119.72966
  270 Bend                    83    84    87               119.42033
  271 Bend                    83    85    88               119.63460
  272 Bend                    83    85    89               119.12499
  273 Bend                    84    83    85               120.44456
  274 Bend                    84    86    90               120.11782
  275 Bend                    84    86    91               119.77366
  276 Bend                    85    88    90               120.16487
  277 Bend                    85    88    92               119.64789
  278 Bend                    86    84    87               120.84748
  279 Bend                    86    90    88               119.89579
  280 Bend                    86    90    93               119.98351
  281 Bend                    88    85    89               121.22823
  282 Bend                    88    90    93               120.12014
  283 Bend                    90    86    91               120.10849
  284 Bend                    90    88    92               120.18721
  285 Bend                    95    94    96               109.61783
  286 Bend                    95    94    97               108.74778
  287 Bend                    96    94    97               110.45854
  288 Torsion                  1     3     4     5        -176.96611
  289 Torsion                  1     3     4     6           9.05407
  290 Torsion                  1     3    71    83         118.40945
  291 Torsion                  1     3    71    94        -108.12433
  292 Torsion                  1    71     4     5        -171.82984
  293 Torsion                  1    71     4     6          18.45803
  294 Torsion                  4     3     1    71        -171.80362
  295 Torsion                  1    71    83    84         -63.24919
  296 Torsion                  1    71    83    85         120.11009
  297 Torsion                  1    71    94    95          74.39538
  298 Torsion                  1    71    94    96        -165.82492
  299 Torsion                  1    71    94    97         -45.29593
  300 Torsion                  1    77    76    73        -179.19450
  301 Torsion                  1    77    76    79           0.52317
  302 Torsion                  1    77    78    75         178.91924
  303 Torsion                  1    77    78    80          -1.09941
  304 Torsion                  2     1     3     4         -60.68778
  305 Torsion                  2     1     3    71         111.11584
  306 Torsion                  2     1    71     3        -103.60600
  307 Torsion                  2     1    71    83         142.32432
  308 Torsion                  2     1    71    94           5.08245
  309 Torsion                  2     1    77    76           0.49286
  310 Torsion                  2     1    77    78         179.68004
  311 Torsion                  3     1    71    83        -114.06968
  312 Torsion                  3     1    71    94         108.68845
  313 Torsion                  3     1    77    76        -128.49205
  314 Torsion                  3     1    77    78          50.69513
  315 Torsion                  3     4     5     7        -179.54470
  316 Torsion                  3     4     5     8           8.28775
  317 Torsion                  3     4     6     9         169.08030
  318 Torsion                  3     4     6    10          -3.61024
  319 Torsion                  3    71     1    77          94.90363
  320 Torsion                  3    71    83    84        -149.93950
  321 Torsion                  3    71    83    85          33.41978
  322 Torsion                  3    71    94    95         153.87620
  323 Torsion                  3    71    94    96         -86.34410
  324 Torsion                  3    71    94    97          34.18489
  325 Torsion                  4     3     1    77          72.05438
  326 Torsion                  4     5     7     9          11.23140
  327 Torsion                  4     5     7    11         131.41619
  328 Torsion                  4     5     7    12        -108.39404
  329 Torsion                  4     5     8    13         -93.27787
  330 Torsion                  4     5     8    14          85.39991
  331 Torsion                  4     6     9     7          12.10610
  332 Torsion                  4     6     9    15        -107.30066
  333 Torsion                  4     6     9    16         132.94472
  334 Torsion                  4     6    10    17        -101.02722
  335 Torsion                  4     6    10    18          79.87269
  336 Torsion                  5     4    71    83         -53.34287
  337 Torsion                  5     4    71    94          79.36246
  338 Torsion                  4     5     3    71        -166.44048
  339 Torsion                  5     4     6     9          -5.53821
  340 Torsion                  5     4     6    10        -178.22874
  341 Torsion                  5     7     9     6         -12.84366
  342 Torsion                  5     7     9    15         105.11003
  343 Torsion                  5     7     9    16        -132.15166
  344 Torsion                  5     8    13    19         176.75381
  345 Torsion                  5     8    13    20          -3.36027
  346 Torsion                  5     8    14    21        -177.22099
  347 Torsion                  5     8    14    22           3.18993
  348 Torsion                  6     4    71    83         136.94499
  349 Torsion                  6     4    71    94         -90.34967
  350 Torsion                  4     6     3    71         164.43683
  351 Torsion                  6     4     5     7          -4.19720
  352 Torsion                  6     4     5     8        -176.36475
  353 Torsion                  6     9     7    11        -131.79325
  354 Torsion                  6     9     7    12         105.56208
  355 Torsion                  6    10    17    23         179.32262
  356 Torsion                  6    10    17    24          -0.67782
  357 Torsion                  6    10    18    25        -179.24297
  358 Torsion                  6    10    18    26           3.43119
  359 Torsion                  7     5     8    13          95.30857
  360 Torsion                  7     5     8    14         -86.01365
  361 Torsion                  7     9     6    10        -174.98914
  362 Torsion                  8     5     7     9        -176.75429
  363 Torsion                  8     5     7    11         -56.56949
  364 Torsion                  8     5     7    12          63.62027
  365 Torsion                  8    13    19    27           0.85172
  366 Torsion                  8    13    19    28        -178.91770
  367 Torsion                  8    13    20    29        -117.23629
  368 Torsion                  8    13    20    30         118.19232
  369 Torsion                  8    13    20    31           0.75687
  370 Torsion                  8    14    21    27           0.10958
  371 Torsion                  8    14    21    32         179.63538
  372 Torsion                  8    14    22    33        -122.09543
  373 Torsion                  8    14    22    34         113.54350
  374 Torsion                  8    14    22    35          -4.75121
  375 Torsion                  9     6    10    17          86.84536
  376 Torsion                  9     6    10    18         -92.25472
  377 Torsion                 10     6     9    15          65.60410
  378 Torsion                 10     6     9    16         -54.15052
  379 Torsion                 10    17    23    36           0.38615
  380 Torsion                 10    17    23    37        -179.11261
  381 Torsion                 10    17    24    38        -118.37972
  382 Torsion                 10    17    24    39         117.14622
  383 Torsion                 10    17    24    40          -0.10777
  384 Torsion                 10    18    25    36          -0.57784
  385 Torsion                 10    18    25    41         179.06084
  386 Torsion                 10    18    26    42        -133.84617
  387 Torsion                 10    18    26    43         102.43570
  388 Torsion                 10    18    26    44         -15.61437
  389 Torsion                 11     7     9    15         -13.83956
  390 Torsion                 11     7     9    16         108.89875
  391 Torsion                 12     7     9    15        -136.48423
  392 Torsion                 12     7     9    16         -13.74593
  393 Torsion                 13     8    14    21           1.41585
  394 Torsion                 13     8    14    22        -178.17323
  395 Torsion                 13    19    27    21           0.61849
  396 Torsion                 13    19    27    45        -179.69520
  397 Torsion                 13    20    29    46          55.80147
  398 Torsion                 13    20    29    47         -64.15658
  399 Torsion                 13    20    29    48         176.22163
  400 Torsion                 13    20    30    49         -58.11144
  401 Torsion                 13    20    30    50        -178.10086
  402 Torsion                 13    20    30    51          62.21910
  403 Torsion                 14     8    13    19          -1.88951
  404 Torsion                 14     8    13    20         177.99640
  405 Torsion                 14    21    27    19          -1.11374
  406 Torsion                 14    21    27    45         179.20009
  407 Torsion                 14    22    33    52          58.09344
  408 Torsion                 14    22    33    53         -62.48472
  409 Torsion                 14    22    33    54         177.80246
  410 Torsion                 14    22    34    55         -55.82891
  411 Torsion                 14    22    34    56        -176.48135
  412 Torsion                 14    22    34    57          63.87154
  413 Torsion                 17    10    18    25           1.69232
  414 Torsion                 17    10    18    26        -175.63352
  415 Torsion                 17    23    36    25           0.68171
  416 Torsion                 17    23    36    58        -179.50839
  417 Torsion                 17    24    38    59          56.42268
  418 Torsion                 17    24    38    60         -63.47123
  419 Torsion                 17    24    38    61         177.05887
  420 Torsion                 17    24    39    62         -56.40919
  421 Torsion                 17    24    39    63        -176.97754
  422 Torsion                 17    24    39    64          63.32740
  423 Torsion                 18    10    17    23          -1.60061
  424 Torsion                 18    10    17    24         178.39894
  425 Torsion                 18    25    36    23          -0.58260
  426 Torsion                 18    25    36    58         179.60741
  427 Torsion                 18    26    42    65          51.82718
  428 Torsion                 18    26    42    66         -68.56189
  429 Torsion                 18    26    42    67         172.98234
  430 Torsion                 18    26    43    68         -55.57670
  431 Torsion                 18    26    43    69        -176.66900
  432 Torsion                 18    26    43    70          63.97830
  433 Torsion                 19    13    20    29          62.64746
  434 Torsion                 19    13    20    30         -61.92393
  435 Torsion                 19    13    20    31        -179.35939
  436 Torsion                 19    27    21    32         179.36058
  437 Torsion                 20    13    19    27        -179.03613
  438 Torsion                 20    13    19    28           1.19445
  439 Torsion                 21    14    22    33          58.32301
  440 Torsion                 21    14    22    34         -66.03806
  441 Torsion                 21    14    22    35         175.66723
  442 Torsion                 21    27    19    28        -179.61214
  443 Torsion                 22    14    21    27         179.70638
  444 Torsion                 22    14    21    32          -0.76783
  445 Torsion                 23    17    24    38          61.61983
  446 Torsion                 23    17    24    39         -62.85423
  447 Torsion                 23    17    24    40         179.89178
  448 Torsion                 23    36    25    41         179.77882
  449 Torsion                 24    17    23    36        -179.61341
  450 Torsion                 24    17    23    37           0.88782
  451 Torsion                 25    18    26    42          48.88906
  452 Torsion                 25    18    26    43         -74.82907
  453 Torsion                 25    18    26    44         167.12086
  454 Torsion                 25    36    23    37        -179.82013
  455 Torsion                 26    18    25    36         176.79590
  456 Torsion                 26    18    25    41          -3.56542
  457 Torsion                 28    19    27    45           0.07417
  458 Torsion                 29    20    30    49         177.58832
  459 Torsion                 29    20    30    50          57.59891
  460 Torsion                 29    20    30    51         -62.08113
  461 Torsion                 30    20    29    46        -179.51058
  462 Torsion                 30    20    29    47          60.53137
  463 Torsion                 30    20    29    48         -59.09042
  464 Torsion                 31    20    29    46         -61.94574
  465 Torsion                 31    20    29    47         178.09621
  466 Torsion                 31    20    29    48          58.47442
  467 Torsion                 31    20    30    49          59.55162
  468 Torsion                 31    20    30    50         -60.43779
  469 Torsion                 31    20    30    51         179.88217
  470 Torsion                 32    21    27    45          -0.32559
  471 Torsion                 33    22    34    55         179.52369
  472 Torsion                 33    22    34    56          58.87126
  473 Torsion                 33    22    34    57         -60.77585
  474 Torsion                 34    22    33    52        -177.92705
  475 Torsion                 34    22    33    53          61.49478
  476 Torsion                 34    22    33    54         -58.21804
  477 Torsion                 35    22    33    52         -59.86235
  478 Torsion                 35    22    33    53         179.55949
  479 Torsion                 35    22    33    54          59.84667
  480 Torsion                 35    22    34    55          62.27030
  481 Torsion                 35    22    34    56         -58.38214
  482 Torsion                 35    22    34    57        -178.02925
  483 Torsion                 37    23    36    58          -0.01023
  484 Torsion                 38    24    39    62         179.16035
  485 Torsion                 38    24    39    63          58.59200
  486 Torsion                 38    24    39    64         -61.10306
  487 Torsion                 39    24    38    59        -179.24305
  488 Torsion                 39    24    38    60          60.86304
  489 Torsion                 39    24    38    61         -58.60686
  490 Torsion                 40    24    38    59         -61.79168
  491 Torsion                 40    24    38    60         178.31442
  492 Torsion                 40    24    38    61          58.84451
  493 Torsion                 40    24    39    62          61.24933
  494 Torsion                 40    24    39    63         -59.31902
  495 Torsion                 40    24    39    64        -179.01409
  496 Torsion                 41    25    36    58          -0.03116
  497 Torsion                 42    26    43    68         179.45600
  498 Torsion                 42    26    43    69          58.36370
  499 Torsion                 42    26    43    70         -60.98900
  500 Torsion                 43    26    42    65         175.24247
  501 Torsion                 43    26    42    66          54.85340
  502 Torsion                 43    26    42    67         -63.60237
  503 Torsion                 44    26    42    65         -66.67395
  504 Torsion                 44    26    42    66         172.93698
  505 Torsion                 44    26    42    67          54.48121
  506 Torsion                 44    26    43    68          62.06207
  507 Torsion                 44    26    43    69         -59.03023
  508 Torsion                 44    26    43    70        -178.38292
  509 Torsion                 71     1    77    76         161.67895
  510 Torsion                 71     1    77    78         -19.13388
  511 Torsion                 71     3     1    77        -116.14200
  512 Torsion                 71    83    84    86        -177.56394
  513 Torsion                 71    83    84    87           3.00941
  514 Torsion                 71    83    85    88         177.99480
  515 Torsion                 71    83    85    89          -3.25900
  516 Torsion                 72    73    76    77          -0.04530
  517 Torsion                 72    73    76    79        -179.75340
  518 Torsion                 72    75    78    77           0.80271
  519 Torsion                 72    75    78    80        -179.17905
  520 Torsion                 73    72    75    74        -178.89636
  521 Torsion                 73    72    75    78           0.72858
  522 Torsion                 73    76    77    78           1.54655
  523 Torsion                 74    75    72    81           0.61482
  524 Torsion                 74    75    78    77        -179.56943
  525 Torsion                 74    75    78    80           0.44881
  526 Torsion                 75    72    73    76          -1.10437
  527 Torsion                 75    72    73    82         179.30120
  528 Torsion                 75    78    77    76          -1.91891
  529 Torsion                 76    73    72    81         179.38488
  530 Torsion                 76    77    78    80         178.06244
  531 Torsion                 77     1    71    83         -19.16605
  532 Torsion                 77     1    71    94        -156.40791
  533 Torsion                 77    76    73    82         179.55171
  534 Torsion                 78    75    72    81        -179.76025
  535 Torsion                 78    77    76    79        -178.73578
  536 Torsion                 79    76    73    82          -0.15639
  537 Torsion                 81    72    73    82          -0.20955
  538 Torsion                  4     3    83    71         170.84180
  539 Torsion                 83    71    94    95         -68.34045
  540 Torsion                 83    71    94    96          51.43925
  541 Torsion                 83    71    94    97         171.96824
  542 Torsion                 83    84    86    90           0.02946
  543 Torsion                 83    84    86    91         179.96035
  544 Torsion                 83    85    88    90          -0.89126
  545 Torsion                 83    85    88    92         179.04907
  546 Torsion                 84    83    71    94          75.12125
  547 Torsion                 84    83    85    88           1.37755
  548 Torsion                 84    83    85    89        -179.87625
  549 Torsion                 84    86    90    88           0.45031
  550 Torsion                 84    86    90    93        -179.82336
  551 Torsion                 85    83    71    94        -101.51946
  552 Torsion                 85    83    84    86          -0.94823
  553 Torsion                 85    83    84    87         179.62512
  554 Torsion                 85    88    90    86          -0.01724
  555 Torsion                 85    88    90    93        -179.74320
  556 Torsion                 86    90    88    92        -179.95725
  557 Torsion                 87    84    86    90         179.44776
  558 Torsion                 87    84    86    91          -0.62134
  559 Torsion                 88    90    86    91        -179.48035
  560 Torsion                 89    85    88    90        -179.61040
  561 Torsion                 89    85    88    92           0.32993
  562 Torsion                 91    86    90    93           0.24598
  563 Torsion                 92    88    90    93           0.31680
  564 Torsion                  4     3    94    71         178.07547


            XYZ format geometry
            -------------------
    97
 geometry
 C                     1.82004807     0.41440469    -1.51092638
 O                     1.55907996     1.21246467    -2.42204946
 Ni                    0.16559585    -0.34866543    -0.64207236
 C                    -1.30605163     0.31042284     0.29012319
 N                    -2.23713091    -0.52451074     0.80202557
 N                    -1.74674587     1.55894103     0.51248706
 C                    -3.33078979     0.15403100     1.49411922
 C                    -2.05683692    -1.93836940     0.80921310
 C                    -3.09174104     1.61247630     1.08957098
 C                    -1.06466452     2.74034853     0.08913523
 H                    -4.29926369    -0.22369923     1.16243513
 H                    -3.25820225     0.00283238     2.57610155
 C                    -2.57050684    -2.68940653    -0.25321328
 C                    -1.34969438    -2.53374161     1.85953477
 H                    -3.80978772     1.95576136     0.33910550
 H                    -3.12548627     2.30169011     1.93422360
 C                    -0.31540080     3.44682834     1.03372184
 C                    -1.17764704     3.16581066    -1.23835631
 C                    -2.32734529    -4.05885892    -0.26710081
 C                    -3.37438890    -2.04889106    -1.36686663
 C                    -1.13748823    -3.90760079     1.81208541
 C                    -0.82811622    -1.72586347     3.03135407
 C                     0.35887454     4.58827741     0.61507814
 C                    -0.22372894     3.00275439     2.48034001
 C                    -0.48568564     4.31100180    -1.61438945
 C                    -2.06882469     2.45161865    -2.23562893
 C                    -1.61169903    -4.66390100     0.75250642
 H                    -2.69963866    -4.65938527    -1.08841557
 C                    -4.80072180    -2.60236888    -1.39559259
 C                    -2.68671751    -2.21578889    -2.72169890
 H                    -3.43068837    -0.97842894    -1.16132766
 H                    -0.58744175    -4.39135686     2.61062673
 C                     0.68608554    -1.86475124     3.18401343
 C                    -1.55291386    -2.12102247     4.32041541
 H                    -1.03285286    -0.67236205     2.83212437
 C                     0.28063774     5.01367440    -0.69966076
 H                     0.95848871     5.14574481     1.32485162
 C                    -0.79400345     4.06523930     3.42252097
 C                     1.21341065     2.64478800     2.85372964
 H                    -0.82260495     2.09620892     2.59192359
 H                    -0.54212514     4.65539464    -2.63918236
 C                    -1.37479116     2.20615536    -3.57497931
 C                    -3.36474577     3.24396091    -2.44003238
 H                    -2.32281301     1.47529378    -1.81694757
 H                    -1.42705210    -5.73054519     0.72377299
 H                    -5.29469961    -2.47532541    -0.43039757
 H                    -4.80401975    -3.66850056    -1.63162800
 H                    -5.39387864    -2.09024511    -2.15533366
 H                    -1.68691936    -1.77896964    -2.69892538
 H                    -3.26226478    -1.71997012    -3.50601762
 H                    -2.59454225    -3.27055065    -2.99114317
 H                     1.19263832    -1.54588726     2.27242080
 H                     0.97260208    -2.89777729     3.39462282
 H                     1.04308250    -1.24457097     4.00878502
 H                    -2.63469135    -2.01493946     4.21748425
 H                    -1.22342092    -1.49792351     5.15379981
 H                    -1.34715407    -3.16227906     4.57812085
 H                     0.81757182     5.90018665    -1.01360491
 H                    -1.82602230     4.31443112     3.16716785
 H                    -0.21043147     4.98665479     3.37163209
 H                    -0.77021129     3.71297220     4.45573561
 H                     1.60757068     1.87715052     2.18768121
 H                     1.26303506     2.27513533     3.88086740
 H                     1.86702696     3.51676738     2.78008218
 H                    -0.41222425     1.71707125    -3.42943490
 H                    -1.20294477     3.14356200    -4.10937765
 H                    -2.00796588     1.58352475    -4.21167919
 H                    -3.88610578     3.42501210    -1.49783627
 H                    -4.04071468     2.71029120    -3.11150904
 H                    -3.14651234     4.21737318    -2.88563211
 N                     1.58076219    -1.00968923    -1.76124403
 C                     4.46494112     1.89188408     1.54856437
 C                     4.05945852     2.67339202     0.47604296
 H                     4.27814628    -0.02001013     2.50625328
 C                     3.98423468     0.59530656     1.66474452
 C                     3.20175512     2.15563771    -0.48048846
 C                     2.73086193     0.84454658    -0.38677187
 C                     3.11898402     0.07638169     0.71270637
 H                     2.87907407     2.74948795    -1.32453311
 H                     2.75372663    -0.93061601     0.84072777
 H                     5.14314707     2.29160496     2.29185768
 H                     4.41713292     3.69099186     0.37786448
 C                     2.44868844    -2.05434822    -1.27469198
 C                     3.76265447    -2.11904575    -1.71558223
 C                     1.94399630    -3.02699263    -0.42419089
 C                     4.58176034    -3.15265803    -1.28691985
 H                     4.13787465    -1.35375455    -2.38450915
 C                     2.76962364    -4.05479502     0.00958181
 H                     0.91206883    -2.95646133    -0.09399636
 C                     4.08838352    -4.11912738    -0.42043927
 H                     5.60663575    -3.20417568    -1.63089348
 H                     2.38016458    -4.80558392     0.68582160
 H                     4.73042088    -4.92329500    -0.08499411
 C                     1.15953999    -1.29842143    -3.14684059
 H                     2.01250009    -1.21578039    -3.82500938
 H                     0.76563155    -2.31319793    -3.17677055
 H                     0.40000852    -0.58775553    -3.45383530

 ==============================================================================
                                internuclear distances
 ------------------------------------------------------------------------------
       center one      |      center two      | atomic units |  angstroms
 ------------------------------------------------------------------------------
    2 O                |   1 C                |     2.34139  |     1.23901
    3 Ni               |   1 C                |     3.81444  |     2.01851
    4 C                |   3 Ni               |     3.51973  |     1.86256
    5 N                |   4 C                |     2.55363  |     1.35132
    6 N                |   4 C                |     2.53706  |     1.34256
    7 C                |   5 N                |     2.76152  |     1.46134
    8 C                |   5 N                |     2.69348  |     1.42533
    9 C                |   6 N                |     2.76760  |     1.46455
    9 C                |   7 C                |     2.89558  |     1.53227
   10 C                |   6 N                |     2.69919  |     1.42835
   11 H                |   7 C                |     2.06200  |     1.09116
   12 H                |   7 C                |     2.06907  |     1.09490
   13 C                |   8 C                |     2.64336  |     1.39881
   14 C                |   8 C                |     2.64406  |     1.39918
   15 H                |   9 C                |     2.06719  |     1.09391
   16 H                |   9 C                |     2.06109  |     1.09068
   17 C                |  10 C                |     2.64072  |     1.39741
   18 C                |  10 C                |     2.64293  |     1.39858
   19 C                |  13 C                |     2.62850  |     1.39094
   20 C                |  13 C                |     2.86386  |     1.51549
   21 C                |  14 C                |     2.62853  |     1.39096
   22 C                |  14 C                |     2.86458  |     1.51587
   23 C                |  17 C                |     2.62721  |     1.39026
   24 C                |  17 C                |     2.86486  |     1.51602
   25 C                |  18 C                |     2.62643  |     1.38985
   26 C                |  18 C                |     2.86518  |     1.51619
   27 C                |  19 C                |     2.61700  |     1.38486
   27 C                |  21 C                |     2.61819  |     1.38549
   28 H                |  19 C                |     2.04736  |     1.08342
   29 C                |  20 C                |     2.89171  |     1.53022
   30 C                |  20 C                |     2.88845  |     1.52850
   31 H                |  20 C                |     2.06258  |     1.09147
   32 H                |  21 C                |     2.04775  |     1.08362
   33 C                |  22 C                |     2.88788  |     1.52820
   34 C                |  22 C                |     2.89268  |     1.53074
   35 H                |  22 C                |     2.06272  |     1.09155
   36 C                |  23 C                |     2.61549  |     1.38406
   36 C                |  25 C                |     2.61693  |     1.38482
   37 H                |  23 C                |     2.04762  |     1.08355
   38 C                |  24 C                |     2.89183  |     1.53029
   39 C                |  24 C                |     2.88635  |     1.52739
   40 H                |  24 C                |     2.06398  |     1.09221
   41 H                |  25 C                |     2.04579  |     1.08259
   42 C                |  26 C                |     2.88813  |     1.52833
   43 C                |  26 C                |     2.89628  |     1.53264
   44 H                |  26 C                |     2.06406  |     1.09225
   45 H                |  27 C                |     2.04636  |     1.08289
   46 H                |  29 C                |     2.06297  |     1.09168
   47 H                |  29 C                |     2.06349  |     1.09195
   48 H                |  29 C                |     2.06258  |     1.09147
   49 H                |  30 C                |     2.06225  |     1.09130
   50 H                |  30 C                |     2.06339  |     1.09190
   51 H                |  30 C                |     2.06458  |     1.09253
   52 H                |  33 C                |     2.06082  |     1.09054
   53 H                |  33 C                |     2.06456  |     1.09252
   54 H                |  33 C                |     2.06345  |     1.09193
   55 H                |  34 C                |     2.06326  |     1.09183
   56 H                |  34 C                |     2.06261  |     1.09149
   57 H                |  34 C                |     2.06401  |     1.09223
   58 H                |  36 C                |     2.04646  |     1.08294
   59 H                |  38 C                |     2.06349  |     1.09195
   60 H                |  38 C                |     2.06331  |     1.09186
   61 H                |  38 C                |     2.06334  |     1.09187
   62 H                |  39 C                |     2.05993  |     1.09007
   63 H                |  39 C                |     2.06501  |     1.09276
   64 H                |  39 C                |     2.06403  |     1.09224
   65 H                |  42 C                |     2.05878  |     1.08946
   66 H                |  42 C                |     2.06477  |     1.09263
   67 H                |  42 C                |     2.06488  |     1.09269
   68 H                |  43 C                |     2.06346  |     1.09194
   69 H                |  43 C                |     2.06371  |     1.09207
   70 H                |  43 C                |     2.06466  |     1.09257
   71 N                |   1 C                |     2.76957  |     1.46559
   71 N                |   3 Ni               |     3.63112  |     1.92151
   73 C                |  72 C                |     2.62221  |     1.38761
   75 C                |  72 C                |     2.62236  |     1.38769
   75 C                |  74 H                |     2.04679  |     1.08311
   76 C                |  73 C                |     2.61758  |     1.38516
   77 C                |   1 C                |     2.85238  |     1.50941
   77 C                |  76 C                |     2.63851  |     1.39624
   78 C                |  75 C                |     2.62142  |     1.38720
   78 C                |  77 C                |     2.63857  |     1.39627
   79 H                |  76 C                |     2.04335  |     1.08129
   80 H                |  78 C                |     2.03867  |     1.07882
   81 H                |  72 C                |     2.04599  |     1.08269
   82 H                |  73 C                |     2.04674  |     1.08309
   83 C                |  71 N                |     2.72628  |     1.44269
   84 C                |  83 C                |     2.62194  |     1.38747
   85 C                |  83 C                |     2.62128  |     1.38712
   86 C                |  84 C                |     2.62055  |     1.38674
   87 H                |  84 C                |     2.04748  |     1.08348
   88 C                |  85 C                |     2.62270  |     1.38788
   89 H                |  85 C                |     2.05179  |     1.08576
   90 C                |  86 C                |     2.62412  |     1.38862
   90 C                |  88 C                |     2.62406  |     1.38859
   91 H                |  86 C                |     2.04522  |     1.08229
   92 H                |  88 C                |     2.04638  |     1.08290
   93 H                |  90 C                |     2.04529  |     1.08232
   94 C                |  71 N                |     2.79058  |     1.47671
   95 H                |  94 C                |     2.06515  |     1.09283
   96 H                |  94 C                |     2.05783  |     1.08896
   97 H                |  94 C                |     2.04944  |     1.08452
 ------------------------------------------------------------------------------
                         number of included internuclear distances:        102
 ==============================================================================



 ==============================================================================
                                 internuclear angles
 ------------------------------------------------------------------------------
        center 1       |       center 2       |       center 3       |  degrees
 ------------------------------------------------------------------------------
    2 O                |   1 C                |   3 Ni               |   112.79
    2 O                |   1 C                |  71 N                |   117.77
    2 O                |   1 C                |  77 C                |   119.42
    1 C                |  71 N                |   3 Ni               |    71.73
    3 Ni               |   1 C                |  77 C                |   106.36
   71 N                |   1 C                |  77 C                |   120.17
    1 C                |   3 Ni               |   4 C                |   136.83
    3 Ni               |  71 N                |   1 C                |    71.73
    4 C                |   3 Ni               |  71 N                |   174.36
    3 Ni               |   4 C                |   5 N                |   121.02
    3 Ni               |   4 C                |   6 N                |   132.17
    5 N                |   4 C                |   6 N                |   106.60
    4 C                |   5 N                |   7 C                |   114.09
    4 C                |   5 N                |   8 C                |   121.85
    7 C                |   5 N                |   8 C                |   123.56
    4 C                |   6 N                |   9 C                |   113.62
    4 C                |   6 N                |  10 C                |   124.29
    9 C                |   6 N                |  10 C                |   121.68
    5 N                |   7 C                |   9 C                |   101.55
    5 N                |   7 C                |  11 H                |   111.07
    5 N                |   7 C                |  12 H                |   110.75
    9 C                |   7 C                |  11 H                |   112.81
    9 C                |   7 C                |  12 H                |   112.46
   11 H                |   7 C                |  12 H                |   108.15
    5 N                |   8 C                |  13 C                |   118.84
    5 N                |   8 C                |  14 C                |   119.33
   13 C                |   8 C                |  14 C                |   121.82
    6 N                |   9 C                |   7 C                |   102.27
    6 N                |   9 C                |  15 H                |   110.12
    6 N                |   9 C                |  16 H                |   110.90
    7 C                |   9 C                |  15 H                |   112.17
    7 C                |   9 C                |  16 H                |   113.09
   15 H                |   9 C                |  16 H                |   108.22
    6 N                |  10 C                |  17 C                |   118.28
    6 N                |  10 C                |  18 C                |   119.63
   17 C                |  10 C                |  18 C                |   122.08
    8 C                |  13 C                |  19 C                |   118.16
    8 C                |  13 C                |  20 C                |   121.74
   19 C                |  13 C                |  20 C                |   120.10
    8 C                |  14 C                |  21 C                |   118.15
    8 C                |  14 C                |  22 C                |   121.83
   21 C                |  14 C                |  22 C                |   120.02
   10 C                |  17 C                |  23 C                |   118.14
   10 C                |  17 C                |  24 C                |   121.96
   23 C                |  17 C                |  24 C                |   119.90
   10 C                |  18 C                |  25 C                |   117.86
   10 C                |  18 C                |  26 C                |   121.90
   25 C                |  18 C                |  26 C                |   120.19
   13 C                |  19 C                |  27 C                |   120.87
   13 C                |  19 C                |  28 H                |   119.55
   27 C                |  19 C                |  28 H                |   119.57
   13 C                |  20 C                |  29 C                |   110.82
   13 C                |  20 C                |  30 C                |   111.50
   13 C                |  20 C                |  31 H                |   107.67
   29 C                |  20 C                |  30 C                |   111.30
   29 C                |  20 C                |  31 H                |   108.07
   30 C                |  20 C                |  31 H                |   107.29
   14 C                |  21 C                |  27 C                |   120.87
   14 C                |  21 C                |  32 H                |   119.55
   27 C                |  21 C                |  32 H                |   119.58
   14 C                |  22 C                |  33 C                |   111.70
   14 C                |  22 C                |  34 C                |   110.52
   14 C                |  22 C                |  35 H                |   107.98
   33 C                |  22 C                |  34 C                |   111.20
   33 C                |  22 C                |  35 H                |   106.97
   34 C                |  22 C                |  35 H                |   108.30
   17 C                |  23 C                |  36 C                |   120.73
   17 C                |  23 C                |  37 H                |   119.57
   36 C                |  23 C                |  37 H                |   119.70
   17 C                |  24 C                |  38 C                |   111.20
   17 C                |  24 C                |  39 C                |   111.03
   17 C                |  24 C                |  40 H                |   107.91
   38 C                |  24 C                |  39 C                |   111.27
   38 C                |  24 C                |  40 H                |   108.00
   39 C                |  24 C                |  40 H                |   107.24
   18 C                |  25 C                |  36 C                |   120.99
   18 C                |  25 C                |  41 H                |   119.49
   36 C                |  25 C                |  41 H                |   119.52
   18 C                |  26 C                |  42 C                |   112.65
   18 C                |  26 C                |  43 C                |   109.95
   18 C                |  26 C                |  44 H                |   107.79
   42 C                |  26 C                |  43 C                |   110.50
   42 C                |  26 C                |  44 H                |   107.33
   43 C                |  26 C                |  44 H                |   108.46
   19 C                |  27 C                |  21 C                |   120.10
   19 C                |  27 C                |  45 H                |   119.93
   21 C                |  27 C                |  45 H                |   119.97
   20 C                |  29 C                |  46 H                |   111.29
   20 C                |  29 C                |  47 H                |   111.10
   20 C                |  29 C                |  48 H                |   110.48
   46 H                |  29 C                |  47 H                |   107.66
   46 H                |  29 C                |  48 H                |   108.36
   47 H                |  29 C                |  48 H                |   107.82
   20 C                |  30 C                |  49 H                |   110.49
   20 C                |  30 C                |  50 H                |   110.49
   20 C                |  30 C                |  51 H                |   111.22
   49 H                |  30 C                |  50 H                |   108.43
   49 H                |  30 C                |  51 H                |   108.32
   50 H                |  30 C                |  51 H                |   107.80
   22 C                |  33 C                |  52 H                |   110.50
   22 C                |  33 C                |  53 H                |   111.41
   22 C                |  33 C                |  54 H                |   110.35
   52 H                |  33 C                |  53 H                |   108.41
   52 H                |  33 C                |  54 H                |   108.27
   53 H                |  33 C                |  54 H                |   107.80
   22 C                |  34 C                |  55 H                |   111.39
   22 C                |  34 C                |  56 H                |   110.65
   22 C                |  34 C                |  57 H                |   110.83
   55 H                |  34 C                |  56 H                |   108.40
   55 H                |  34 C                |  57 H                |   107.55
   56 H                |  34 C                |  57 H                |   107.89
   23 C                |  36 C                |  25 C                |   120.18
   23 C                |  36 C                |  58 H                |   119.93
   25 C                |  36 C                |  58 H                |   119.88
   24 C                |  38 C                |  59 H                |   111.51
   24 C                |  38 C                |  60 H                |   110.98
   24 C                |  38 C                |  61 H                |   110.52
   59 H                |  38 C                |  60 H                |   107.56
   59 H                |  38 C                |  61 H                |   108.39
   60 H                |  38 C                |  61 H                |   107.74
   24 C                |  39 C                |  62 H                |   110.85
   24 C                |  39 C                |  63 H                |   110.60
   24 C                |  39 C                |  64 H                |   111.07
   62 H                |  39 C                |  63 H                |   108.64
   62 H                |  39 C                |  64 H                |   107.74
   63 H                |  39 C                |  64 H                |   107.83
   26 C                |  42 C                |  65 H                |   110.87
   26 C                |  42 C                |  66 H                |   111.24
   26 C                |  42 C                |  67 H                |   109.82
   65 H                |  42 C                |  66 H                |   108.15
   65 H                |  42 C                |  67 H                |   109.51
   66 H                |  42 C                |  67 H                |   107.16
   26 C                |  43 C                |  68 H                |   111.98
   26 C                |  43 C                |  69 H                |   110.66
   26 C                |  43 C                |  70 H                |   110.25
   68 H                |  43 C                |  69 H                |   108.42
   68 H                |  43 C                |  70 H                |   107.43
   69 H                |  43 C                |  70 H                |   107.95
    1 C                |  71 N                |   3 Ni               |    71.73
    1 C                |  71 N                |  83 C                |   123.21
    1 C                |  71 N                |  94 C                |   113.38
    3 Ni               |  71 N                |  83 C                |   119.72
    3 Ni               |  71 N                |  94 C                |   113.81
   83 C                |  71 N                |  94 C                |   110.27
   73 C                |  72 C                |  75 C                |   119.32
   73 C                |  72 C                |  81 H                |   120.38
   75 C                |  72 C                |  81 H                |   120.30
   72 C                |  73 C                |  76 C                |   120.28
   72 C                |  73 C                |  82 H                |   120.18
   76 C                |  73 C                |  82 H                |   119.54
   72 C                |  75 C                |  74 H                |   120.12
   72 C                |  75 C                |  78 C                |   120.54
   74 H                |  75 C                |  78 C                |   119.34
   73 C                |  76 C                |  77 C                |   120.90
   73 C                |  76 C                |  79 H                |   121.23
   77 C                |  76 C                |  79 H                |   117.87
    1 C                |  77 C                |  76 C                |   114.90
    1 C                |  77 C                |  78 C                |   126.68
   76 C                |  77 C                |  78 C                |   118.41
   75 C                |  78 C                |  77 C                |   120.53
   75 C                |  78 C                |  80 H                |   118.61
   77 C                |  78 C                |  80 H                |   120.85
   71 N                |  83 C                |  84 C                |   119.76
   71 N                |  83 C                |  85 C                |   119.71
   84 C                |  83 C                |  85 C                |   120.44
   83 C                |  84 C                |  86 C                |   119.73
   83 C                |  84 C                |  87 H                |   119.42
   86 C                |  84 C                |  87 H                |   120.85
   83 C                |  85 C                |  88 C                |   119.63
   83 C                |  85 C                |  89 H                |   119.12
   88 C                |  85 C                |  89 H                |   121.23
   84 C                |  86 C                |  90 C                |   120.12
   84 C                |  86 C                |  91 H                |   119.77
   90 C                |  86 C                |  91 H                |   120.11
   85 C                |  88 C                |  90 C                |   120.16
   85 C                |  88 C                |  92 H                |   119.65
   90 C                |  88 C                |  92 H                |   120.19
   86 C                |  90 C                |  88 C                |   119.90
[...]
  ----- ------------  ---------------      ----- ------------  ---------------
     6      2.594485   1 C  s                 2      2.131689   1 C  s         
     3     -1.673060   1 C  s                 5     -1.420683   1 C  s         
     4      1.293605   1 C  s                 1     -1.247311   1 C  s         
   710      0.946710  77 C  pz              708      0.787850  77 C  px        
   217      0.775209  17 C  s               634      0.725276  72 C  s         

 Vector  847  Occ=0.000000D+00  E= 6.330186D+01
              MO Center=  1.0D+00,  2.2D-01, -5.3D-01, r^2= 1.5D+01
   Bfn.  Coefficient  Atom+Function         Bfn.  Coefficient  Atom+Function  
  ----- ------------  ---------------      ----- ------------  ---------------
   697      1.381867  77 C  s               701      1.319632  77 C  s         
   352     -1.121580  26 C  s               698     -1.077103  77 C  s         
   773     -1.045908  85 C  s               356     -1.039697  26 C  s         
   262      0.876127  20 C  s               266      0.877536  20 C  s         
   353      0.874018  26 C  s               236      0.824178  18 C  s         

 Vector  848  Occ=0.000000D+00  E= 6.331673D+01
              MO Center=  2.7D-01, -6.9D-01,  6.9D-02, r^2= 1.6D+01
   Bfn.  Coefficient  Atom+Function         Bfn.  Coefficient  Atom+Function  
  ----- ------------  ---------------      ----- ------------  ---------------
   769      1.145867  85 C  s               773      1.112543  85 C  s         
   142      1.058957   8 C  py              326     -0.999510  24 C  s         
   292      0.954230  22 C  s               322     -0.941292  24 C  s         
   296      0.925229  22 C  s               770     -0.893488  85 C  s         
   352     -0.886037  26 C  s               356     -0.887694  26 C  s         

 Vector  849  Occ=0.000000D+00  E= 6.332663D+01
              MO Center=  2.5D+00,  5.7D-01,  2.1D-01, r^2= 9.2D+00
   Bfn.  Coefficient  Atom+Function         Bfn.  Coefficient  Atom+Function  
  ----- ------------  ---------------      ----- ------------  ---------------
   716      1.731757  78 C  s               712      1.601559  78 C  s         
   686     -1.330515  76 C  s               713     -1.247439  78 C  s         
   682     -1.200209  76 C  s               649      1.099762  73 C  s         
   710     -1.034693  77 C  pz              715     -0.956706  78 C  s         
   683      0.935291  76 C  s               711     -0.939267  78 C  s         

 Vector  850  Occ=0.000000D+00  E= 6.332820D+01
              MO Center=  2.6D+00,  2.5D-01,  2.9D-02, r^2= 6.7D+00
   Bfn.  Coefficient  Atom+Function         Bfn.  Coefficient  Atom+Function  
  ----- ------------  ---------------      ----- ------------  ---------------
   701      1.475862  77 C  s               697      1.395367  77 C  s         
   716      1.317156  78 C  s               712      1.232755  78 C  s         
   682     -1.095859  76 C  s               698     -1.090234  77 C  s         
   667     -1.032855  75 C  s                 6     -1.005718   1 C  s         
   713     -0.963795  78 C  s               686     -0.931642  76 C  s         

 Vector  851  Occ=0.000000D+00  E= 6.340387D+01
              MO Center= -1.6D+00, -1.9D+00,  8.6D-01, r^2= 6.9D+00
   Bfn.  Coefficient  Atom+Function         Bfn.  Coefficient  Atom+Function  
  ----- ------------  ---------------      ----- ------------  ---------------
   185      2.159504  13 C  s               143      1.925042   8 C  pz        
   200     -1.930315  14 C  s               196     -1.653358  14 C  s         
   181      1.640994  13 C  s               209      1.361767  14 C  pz        
   194      1.322501  13 C  pz              197      1.301962  14 C  s         
   182     -1.290743  13 C  s               296     -1.250185  22 C  s         

 Vector  852  Occ=0.000000D+00  E= 6.342153D+01
              MO Center= -1.6D+00, -2.0D+00,  6.1D-01, r^2= 8.5D+00
   Bfn.  Coefficient  Atom+Function         Bfn.  Coefficient  Atom+Function  
  ----- ------------  ---------------      ----- ------------  ---------------
   134      2.853966   8 C  s               130      1.799411   8 C  s         
   142     -1.614762   8 C  py              131     -1.418595   8 C  s         
   281     -1.296815  21 C  s               133     -1.259516   8 C  s         
   251     -1.192881  19 C  s               277     -1.166481  21 C  s         
   247     -1.156012  19 C  s               132      1.112480   8 C  s         

 Vector  853  Occ=0.000000D+00  E= 6.342590D+01
              MO Center= -1.0D+00,  2.5D+00, -3.0D-01, r^2= 7.6D+00
   Bfn.  Coefficient  Atom+Function         Bfn.  Coefficient  Atom+Function  
  ----- ------------  ---------------      ----- ------------  ---------------
   173      2.102285  10 C  pz              236      1.992408  18 C  s         
   245      1.869978  18 C  pz              221     -1.788967  17 C  s         
   232      1.593672  18 C  s               217     -1.451783  17 C  s         
   356      1.382759  26 C  s               233     -1.255030  18 C  s         
   218      1.143345  17 C  s               235     -1.061910  18 C  s         

 Vector  854  Occ=0.000000D+00  E= 6.344397D+01
              MO Center= -6.6D-01,  2.7D+00, -9.1D-02, r^2= 7.0D+00
   Bfn.  Coefficient  Atom+Function         Bfn.  Coefficient  Atom+Function  
  ----- ------------  ---------------      ----- ------------  ---------------
   164      2.943222  10 C  s               160      1.793952  10 C  s         
   161     -1.415553  10 C  s               230      1.330524  17 C  pz        
   221     -1.306492  17 C  s               163     -1.273991  10 C  s         
   172      1.231016  10 C  py              311     -1.196222  23 C  s         
   341     -1.149210  25 C  s               162      1.115412  10 C  s         

 Vector  855  Occ=0.000000D+00  E= 6.355232D+01
              MO Center=  3.0D+00, -2.8D+00, -8.1D-01, r^2= 3.3D+00
   Bfn.  Coefficient  Atom+Function         Bfn.  Coefficient  Atom+Function  
  ----- ------------  ---------------      ----- ------------  ---------------
   743      2.838190  83 C  s               773     -2.603999  85 C  s         
   806      2.333012  88 C  s               788      2.309998  86 C  s         
   758     -2.273368  84 C  s               824     -2.251118  90 C  s         
   780     -1.524541  85 C  px              739      1.390370  83 C  s         
   769     -1.305721  85 C  s               751     -1.188416  83 C  py        

 Vector  856  Occ=0.000000D+00  E= 6.357612D+01
              MO Center=  3.3D+00,  1.1D+00,  4.3D-01, r^2= 3.7D+00
   Bfn.  Coefficient  Atom+Function         Bfn.  Coefficient  Atom+Function  
  ----- ------------  ---------------      ----- ------------  ---------------
   716     -2.813897  78 C  s               701      2.732196  77 C  s         
   671      2.467935  75 C  s               653      2.330337  73 C  s         
   638     -2.293736  72 C  s               686     -2.299674  76 C  s         
   724     -1.811533  78 C  py              710      1.560433  77 C  pz        
   697      1.368772  77 C  s               712     -1.279758  78 C  s         

 Vector  857  Occ=0.000000D+00  E= 6.359296D+01
              MO Center= -1.7D+00, -2.9D+00,  7.9D-01, r^2= 3.8D+00
   Bfn.  Coefficient  Atom+Function         Bfn.  Coefficient  Atom+Function  
  ----- ------------  ---------------      ----- ------------  ---------------
   134      3.445068   8 C  s               200     -2.991175  14 C  s         
   185     -2.912022  13 C  s               281      2.653399  21 C  s         
   251      2.619728  19 C  s               371     -2.429861  27 C  s         
   142     -2.264060   8 C  py              209      1.682292  14 C  pz        
   194     -1.527209  13 C  pz              130      1.397465   8 C  s         

 Vector  858  Occ=0.000000D+00  E= 6.360969D+01
              MO Center= -5.7D-01,  3.6D+00, -2.5D-01, r^2= 2.4D+00
   Bfn.  Coefficient  Atom+Function         Bfn.  Coefficient  Atom+Function  
  ----- ------------  ---------------      ----- ------------  ---------------
   164      3.619258  10 C  s               236     -3.189300  18 C  s         
   221     -2.991911  17 C  s               311      2.789748  23 C  s         
   341      2.723053  25 C  s               458     -2.570168  36 C  s         
   230      2.134030  17 C  pz              172      2.001219  10 C  py        
   245     -1.577836  18 C  pz              350      1.569458  25 C  pz        

 Vector  859  Occ=0.000000D+00  E= 8.882156D+01
              MO Center= -1.6D+00,  5.1D-02,  3.8D-01, r^2= 3.4D+00
   Bfn.  Coefficient  Atom+Function         Bfn.  Coefficient  Atom+Function  
  ----- ------------  ---------------      ----- ------------  ---------------
    85      2.236957   5 N  s                86     -1.741567   5 N  s         
   142     -1.727046   8 C  py              100     -1.655955   6 N  s         
    89      1.510297   5 N  s                84      1.314067   5 N  s         
   101      1.289002   6 N  s                87      1.228267   5 N  s         
    88     -1.176948   5 N  s               104     -1.161214   6 N  s         

 Vector  860  Occ=0.000000D+00  E= 8.884185D+01
              MO Center=  9.7D-01, -5.9D-01, -1.3D+00, r^2= 3.4D+00
   Bfn.  Coefficient  Atom+Function         Bfn.  Coefficient  Atom+Function  
  ----- ------------  ---------------      ----- ------------  ---------------
   619      2.704794  71 N  s               620     -2.109008  71 N  s         
   623      1.947357  71 N  s               618      1.588021  71 N  s         
   621      1.499403  71 N  s               622     -1.461795  71 N  s         
   100     -1.198182   6 N  s               751     -1.004153  83 C  py        
   101      0.933880   6 N  s               104     -0.873105   6 N  s         

 Vector  861  Occ=0.000000D+00  E= 8.888004D+01
              MO Center= -1.8D+00,  5.6D-01,  5.2D-01, r^2= 2.2D+00
   Bfn.  Coefficient  Atom+Function         Bfn.  Coefficient  Atom+Function  
  ----- ------------  ---------------      ----- ------------  ---------------
   100      2.180684   6 N  s                85      1.936036   5 N  s         
   101     -1.703503   6 N  s               104      1.569050   6 N  s         
    86     -1.512563   5 N  s                89      1.370727   5 N  s         
   172      1.364365  10 C  py               99      1.279421   6 N  s         
   102      1.219198   6 N  s               103     -1.182068   6 N  s         

 Vector  862  Occ=0.000000D+00  E= 1.172035D+02
              MO Center=  1.7D-01, -3.5D-01, -6.4D-01, r^2= 3.7D-02
   Bfn.  Coefficient  Atom+Function         Bfn.  Coefficient  Atom+Function  
  ----- ------------  ---------------      ----- ------------  ---------------
    38      0.926776   3 Ni pz               36      0.499146   3 Ni px        
    41     -0.353277   3 Ni pz              671      0.332402  75 C  s         
   724     -0.288013  78 C  py              723     -0.264203  78 C  px        
   716     -0.244187  78 C  s               710      0.210592  77 C  pz        
   725     -0.200769  78 C  pz              709      0.195432  77 C  py        

 Vector  863  Occ=0.000000D+00  E= 1.172601D+02
              MO Center=  1.7D-01, -3.5D-01, -6.4D-01, r^2= 3.4D-02
   Bfn.  Coefficient  Atom+Function         Bfn.  Coefficient  Atom+Function  
  ----- ------------  ---------------      ----- ------------  ---------------
    37      1.047256   3 Ni py                6     -0.408124   1 C  s         
    40     -0.403377   3 Ni py              142      0.245975   8 C  py        
    14      0.241345   1 C  py              185      0.241083  13 C  s         
   134     -0.231590   8 C  s               623      0.231740  71 N  s         
   208     -0.230144  14 C  py              281     -0.225455  21 C  s         

 Vector  864  Occ=0.000000D+00  E= 1.173745D+02
              MO Center=  1.7D-01, -3.5D-01, -6.4D-01, r^2= 3.7D-02
   Bfn.  Coefficient  Atom+Function         Bfn.  Coefficient  Atom+Function  
  ----- ------------  ---------------      ----- ------------  ---------------
    36      0.925460   3 Ni px               38     -0.517555   3 Ni pz        
     6     -0.488980   1 C  s                39     -0.363897   3 Ni px        
   709     -0.324086  77 C  py               14      0.310848   1 C  py        
    35     -0.282682   3 Ni s                81      0.262705   4 C  px        
    82     -0.253135   4 C  py               45      0.231605   3 Ni px        

 Vector  865  Occ=0.000000D+00  E= 1.187331D+02
              MO Center=  1.6D+00,  1.2D+00, -2.4D+00, r^2= 5.9D-02
   Bfn.  Coefficient  Atom+Function         Bfn.  Coefficient  Atom+Function  
  ----- ------------  ---------------      ----- ------------  ---------------
    17      2.979841   2 O  s                18     -2.301754   2 O  s         
    16     -1.757322   2 O  s                19      1.519639   2 O  s         
    20     -1.266693   2 O  s                21      1.089291   2 O  s         
     6     -0.801012   1 C  s                14     -0.423764   1 C  py        
    15      0.415229   1 C  pz               13      0.295847   1 C  px        

 Vector  866  Occ=0.000000D+00  E= 6.703942D+02
              MO Center=  1.7D-01, -3.5D-01, -6.4D-01, r^2= 2.5D-02
   Bfn.  Coefficient  Atom+Function         Bfn.  Coefficient  Atom+Function  
  ----- ------------  ---------------      ----- ------------  ---------------
    32     28.718795   3 Ni s                33    -15.162443   3 Ni s         
    51     -7.282157   3 Ni dxx              54     -7.283780   3 Ni dyy       
    56     -7.283597   3 Ni dzz              31     -4.264077   3 Ni s         
    57      3.316511   3 Ni dxx              60      3.322256   3 Ni dyy       
    62      3.321575   3 Ni dzz              34      0.705218   3 Ni s         


 center of mass
 --------------
 x =   0.06617697 y =  -0.01165344 z =  -0.03171972

 moments of inertia (a.u.)
 ------------------
       24125.860526960299           0.000000000009           0.000000000003
           0.000000000009       21628.889889753955           0.000000000002
           0.000000000003           0.000000000002       29644.716822097642

     Multipole analysis of the density
     ---------------------------------

     L   x y z        total         alpha         beta         nuclear
     -   - - -        -----         -----         ----         -------
     0   0 0 0      0.000000   -172.000000   -172.000000    344.000000

     1   1 0 0     -1.105556      1.011876      1.011876     -3.129308
     1   0 1 0     -0.994016     -3.791419     -3.791419      6.588821
     1   0 0 1      1.173427     -5.479991     -5.479991     12.133408

     2   2 0 0   -205.188632  -3867.333985  -3867.333985   7529.479338
     2   1 1 0     -3.541760     -6.071032     -6.071032      8.600304
     2   1 0 1      1.487183    -50.629025    -50.629025    102.745234
     2   0 2 0   -206.218397  -4540.573410  -4540.573410   8874.928422
     2   0 1 1      3.468699     -1.518572     -1.518572      6.505843
     2   0 0 2   -212.645837  -2447.607766  -2447.607766   4682.569695


 Task  times  cpu:     1813.6s     wall:     1813.6s


                                NWChem Input Module
                                -------------------


 Summary of allocated global arrays
-----------------------------------
  No active global arrays


MA_summarize_allocated_blocks: starting scan ...
heap block 'gridpts', handle 108, address 0x587f175c9160:
	type of elements:		double precision
	number of elements:		203677165
	address of client space:	0x587f175c91c0
	index for client space:		109380883
	total number of bytes:		1629417424
MA_summarize_allocated_blocks: scan completed: 1 heap block, 0 stack blocks
MA usage statistics:

	allocation statistics:
					      heap	     stack
					      ----	     -----
	current number of blocks	         1	         0
	maximum number of blocks	        37	        58
	current total bytes		1629417424	         0
	maximum total bytes		1649038152	  59490184
	maximum total K-bytes		   1649039	     59491
	maximum total M-bytes		      1650	        60


                                     CITATION
                                     --------
                Please cite the following reference when publishing
                           results obtained with NWChem:

          E. Apra, E. J. Bylaska, W. A. de Jong, N. Govind, K. Kowalski,
       T. P. Straatsma, M. Valiev, H. J. J. van Dam, Y. Alexeev, J. Anchell,
       V. Anisimov, F. W. Aquino, R. Atta-Fynn, J. Autschbach, N. P. Bauman,
     J. C. Becca, D. E. Bernholdt, K. Bhaskaran-Nair, S. Bogatko, P. Borowski,
         J. Boschen, J. Brabec, A. Bruner, E. Cauet, Y. Chen, G. N. Chuev,
      C. J. Cramer, J. Daily, M. J. O. Deegan, T. H. Dunning Jr., M. Dupuis,
   K. G. Dyall, G. I. Fann, S. A. Fischer, A. Fonari, H. Fruchtl, L. Gagliardi,
      J. Garza, N. Gawande, S. Ghosh, K. Glaesemann, A. W. Gotz, J. Hammond,
       V. Helms, E. D. Hermes, K. Hirao, S. Hirata, M. Jacquelin, L. Jensen,
   B. G. Johnson, H. Jonsson, R. A. Kendall, M. Klemm, R. Kobayashi, V. Konkov,
      S. Krishnamoorthy, M. Krishnan, Z. Lin, R. D. Lins, R. J. Littlefield,
      A. J. Logsdail, K. Lopata, W. Ma, A. V. Marenich, J. Martin del Campo,
   D. Mejia-Rodriguez, J. E. Moore, J. M. Mullin, T. Nakajima, D. R. Nascimento,
    J. A. Nichols, P. J. Nichols, J. Nieplocha, A. Otero-de-la-Roza, B. Palmer,
    A. Panyala, T. Pirojsirikul, B. Peng, R. Peverati, J. Pittner, L. Pollack,
   R. M. Richard, P. Sadayappan, G. C. Schatz, W. A. Shelton, D. W. Silverstein,
   D. M. A. Smith, T. A. Soares, D. Song, M. Swart, H. L. Taylor, G. S. Thomas,
            V. Tipparaju, D. G. Truhlar, K. Tsemekhman, T. Van Voorhis,
      A. Vazquez-Mayagoitia, P. Verma, O. Villa, A. Vishnu, K. D. Vogiatzis,
        D. Wang, J. H. Weare, M. J. Williamson, T. L. Windus, K. Wolinski,
        A. T. Wong, Q. Wu, C. Yang, Q. Yu, M. Zacharias, Z. Zhang, Y. Zhao,
                                and R. J. Harrison
                        "NWChem: Past, present, and future
                         J. Chem. Phys. 152, 184102 (2020)
                               doi:10.1063/5.0004997

                                      AUTHORS
                                      -------
  E. Apra, E. J. Bylaska, N. Govind, K. Kowalski, M. Valiev, D. Mejia-Rodriguez,
       A. Kunitsa, N. P. Bauman, A. Panyala, W. A. de Jong, T. P. Straatsma,
   H. J. J. van Dam, D. Wang, T. L. Windus, J. Hammond, J. Autschbach, A. Woods,
    K. Bhaskaran-Nair, J. Brabec, K. Lopata, S. A. Fischer, S. Krishnamoorthy,
     M. Jacquelin, W. Ma, M. Klemm, O. Villa, Y. Chen, V. Anisimov, F. Aquino,
     S. Hirata, M. T. Hackler, E. Hermes, L. Jensen, J. E. Moore, J. C. Becca,
      V. Konjkov, T. Risthaus, M. Malagoli, A. Marenich, A. Otero-de-la-Roza,
        J. Mullin, P. Nichols, R. Peverati, J. Pittner, Y. Zhao, P.-D. Fan,
        A. Fonari, M. J. Williamson, R. J. Harrison, J. R. Rehr, M. Dupuis,
     D. Silverstein, D. M. A. Smith, J. Nieplocha, V. Tipparaju, M. Krishnan,
     B. E. Van Kuiken, A. Vazquez-Mayagoitia, M. Swart, Q. Wu, T. Van Voorhis,
     A. A. Auer, M. Nooijen, L. D. Crosby, E. Brown, G. Cisneros, G. I. Fann,
   H. Fruchtl, J. Garza, K. Hirao, R. A. Kendall, J. A. Nichols, K. Tsemekhman,
    K. Wolinski, J. Anchell, D. E. Bernholdt, P. Borowski, T. Clark, D. Clerc,
   H. Dachsel, M. J. O. Deegan, K. Dyall, D. Elwood, E. Glendening, M. Gutowski,
   A. C. Hess, J. Jaffe, B. G. Johnson, J. Ju, R. Kobayashi, R. Kutteh, Z. Lin,
   R. Littlefield, X. Long, B. Meng, T. Nakajima, S. Niu, L. Pollack, M. Rosing,
   K. Glaesemann, G. Sandrone, M. Stave, H. Taylor, G. Thomas, J. H. van Lenthe,
                               A. T. Wong, Z. Zhang.

 Total times  cpu:     1814.2s     wall:     1814.2s
