 argument  1 = nwchem.in
  NWChem w/ OpenMP: maximum threads =    1
                                         
                                         


             Northwest Computational Chemistry Package (NWChem) 7.2.3
             --------------------------------------------------------


                    Environmental Molecular Sciences Laboratory
                       Pacific Northwest National Laboratory
                                Richland, WA 99352

                              Copyright (c) 1994-2022
                       Pacific Northwest National Laboratory
                            Battelle Memorial Institute

             NWChem is an open-source computational chemistry package
                        distributed under the terms of the
                      Educational Community License (ECL) 2.0
             A copy of the license is included with this distribution
                              in the LICENSE.TXT file

                                  ACKNOWLEDGMENT
                                  --------------

            This software and its documentation were developed at the
            EMSL at Pacific Northwest National Laboratory, a multiprogram
            national laboratory, operated for the U.S. Department of Energy
            by Battelle under Contract Number DE-AC05-76RL01830. Support
            for this work was provided by the Department of Energy Office
            of Biological and Environmental Research, Office of Basic
            Energy Sciences, and the Office of Advanced Scientific Computing.


           Job information
           ---------------

    hostname        = 11d1e5bc6bab
    program         = nwchem
    date            = Sun Jun 29 03:12:43 2025

    compiled        = Fri_May_02_22:05:35_2025
    source          = /opt/nwchem
    nwchem branch   = 7.2.3
    nwchem revision = N/A
    ga revision     = 5.9.1
    use scalapack   = T
    input           = nwchem.in
    prefix          = ni_singlepoint.
    data base       = ./ni_singlepoint.db
    status          = startup
    nproc           =        5
    time left       =     -1s



           Memory information
           ------------------

    heap     =    509724442 doubles =     3888.9 Mbytes
    stack    =    509724443 doubles =     3888.9 Mbytes
    global   =    291271111 doubles =     2222.2 Mbytes (distinct from heap & stack)
    total    =   1310719996 doubles =    10000.0 Mbytes
    verify   = yes
    hardfail = no 


           Directory information
           ---------------------

  0 permanent = .
  0 scratch   = .




                                NWChem Input Module
                                -------------------


                          Ni complex single-point energy
                          ------------------------------

 Scaling coordinates for geometry "geometry" by  1.889725989
 (inverse scale =  0.529177249)

 C1  symmetry detected

          ------
          auto-z
          ------
  no constraints, skipping    0.0000000000000000     
  no constraints, skipping    0.0000000000000000     


                             Geometry "geometry" -> ""
                             -------------------------

 Output coordinates in angstroms (scale by  1.889725989 to convert to a.u.)

  No.       Tag          Charge          X              Y              Z
 ---- ---------------- ---------- -------------- -------------- --------------
    1 C                    6.0000     1.40835612     0.77133699    -1.20937143
    2 O                    8.0000     1.29104074     1.43902388    -2.20933532
    3 Ni                  28.0000     0.12593062    -0.44787024    -0.76194459
    4 C                    6.0000    -1.20043794     0.40889035     0.31232918
    5 N                    7.0000    -2.11960472    -0.38008603     0.89731042
    6 N                    7.0000    -1.56852824     1.67151344     0.54108471
    7 C                    6.0000    -3.15905606     0.34656184     1.62824526
    8 C                    6.0000    -2.01779402    -1.80420291     0.90530741
    9 C                    6.0000    -2.86191366     1.79345096     1.22495003
   10 C                    6.0000    -0.86920640     2.83066343     0.08410115
   11 H                    1.0000    -4.15226372     0.01528743     1.32086424
   12 H                    1.0000    -3.06210442     0.17982966     2.70476753
   13 C                    6.0000    -2.60040666    -2.52585901    -0.14195184
   14 C                    6.0000    -1.33725188    -2.43030021     1.95593987
   15 H                    1.0000    -3.60955551     2.19562483     0.53653101
   16 H                    1.0000    -2.78564026     2.46949517     2.07699967
   17 C                    6.0000    -0.04109475     3.49848283     0.99030115
   18 C                    6.0000    -1.05436343     3.26757158    -1.23034193
   19 C                    6.0000    -2.44719878    -3.90837324    -0.14199544
   20 C                    6.0000    -3.39932588    -1.84682927    -1.23712889
   21 C                    6.0000    -1.22266734    -3.81476886     1.92250648
   22 C                    6.0000    -0.74234131    -1.64307432     3.10705338
   23 C                    6.0000     0.64855540     4.61622437     0.53554877
   24 C                    6.0000     0.10390483     3.05155402     2.43321035
   25 C                    6.0000    -0.34321184     4.38784714    -1.64126391
   26 C                    6.0000    -2.03053064     2.58774623    -2.17192324
   27 C                    6.0000    -1.76113571    -4.54676588     0.87651813
   28 H                    1.0000    -2.86872448    -4.49206226    -0.95090463
   29 C                    6.0000    -4.86860767    -2.27396584    -1.17178996
   30 C                    6.0000    -2.80382161    -2.11355052    -2.61956722
   31 H                    1.0000    -3.35692537    -0.76938015    -1.06423410
   32 H                    1.0000    -0.68943327    -4.32631267     2.71448229
   33 C                    6.0000     0.75535078    -1.90726590     3.25733369
   34 C                    6.0000    -1.48754422    -1.94830857     4.40901536
   35 H                    1.0000    -0.86021715    -0.57981635     2.88747829
   36 C                    6.0000     0.50537355     5.05164324    -0.77082253
   37 H                    1.0000     1.30940897     5.14740002     1.20987142
   38 C                    6.0000    -0.43559894     4.11556854     3.39324293
   39 C                    6.0000     1.55149569     2.69770288     2.76982186
   40 H                    1.0000    -0.49011580     2.14433927     2.56737418
   41 H                    1.0000    -0.44604115     4.74041618    -2.65936306
   42 C                    6.0000    -1.44364986     2.33189573    -3.55980628
   43 C                    6.0000    -3.31332577     3.41909551    -2.28455968
   44 H                    1.0000    -2.28739812     1.61577563    -1.74406947
   45 H                    1.0000    -1.64233142    -5.62243930     0.85425544
   46 H                    1.0000    -5.29975056    -2.07064391    -0.18937540
   47 H                    1.0000    -4.97414295    -3.34352970    -1.36398151
   48 H                    1.0000    -5.45543125    -1.73975998    -1.92105994
   49 H                    1.0000    -1.76064536    -1.79477543    -2.66643188
   50 H                    1.0000    -3.36663950    -1.57510825    -3.38447775
   51 H                    1.0000    -2.84043482    -3.17677579    -2.86574273
   52 H                    1.0000     1.28387291    -1.68739062     2.33040066
   53 H                    1.0000     0.95150192    -2.94926932     3.51770020
   54 H                    1.0000     1.17303668    -1.28062325     4.04760617
   55 H                    1.0000    -2.55754471    -1.75238202     4.31468855
   56 H                    1.0000    -1.09648055    -1.34029197     5.22665387
   57 H                    1.0000    -1.36839557    -2.99816242     4.68479727
   58 H                    1.0000     1.05730120     5.91793047    -1.11306148
   59 H                    1.0000    -1.47465533     4.36974954     3.17381223
   60 H                    1.0000     0.14968684     5.03450897     3.32212938
   61 H                    1.0000    -0.37767889     3.76338362     4.42512625
   62 H                    1.0000     1.93312881     1.92891613     2.09967241
   63 H                    1.0000     1.62446273     2.33011524     3.79588315
   64 H                    1.0000     2.20108339     3.57081898     2.68103145
   65 H                    1.0000    -0.49527582     1.80491135    -3.48524461
   66 H                    1.0000    -1.27574083     3.26782800    -4.09719755
   67 H                    1.0000    -2.14234125     1.73736276    -4.15222690
   68 H                    1.0000    -3.77010197     3.60659090    -1.31079447
   69 H                    1.0000    -4.04404835     2.91132171    -2.91731330
   70 H                    1.0000    -3.09416176     4.38945398    -2.73579712
   71 N                    7.0000     1.10542713    -1.49910735    -1.89937774
   72 C                    6.0000     4.74433034     1.46470987     1.36047947
   73 C                    6.0000     4.40576876     2.36892393     0.36157147
   74 H                    1.0000     4.32868178    -0.44496985     2.24738915
   75 C                    6.0000     4.05230892     0.26585317     1.47830086
   76 C                    6.0000     3.35567641     2.08735182    -0.49374366
   77 C                    6.0000     2.62664928     0.91324693    -0.34502734
   78 C                    6.0000     2.99194768    -0.01135440     0.62655863
   79 H                    1.0000     3.05871457     2.76692950    -1.28179038
   80 H                    1.0000     2.45512389    -0.94743054     0.71279022
   81 H                    1.0000     5.54709779     1.69773329     2.04835168
   82 H                    1.0000     4.94934283     3.29893471     0.25663898
   83 C                    6.0000     2.03931165    -2.42445342    -1.45856836
   84 C                    6.0000     3.30560408    -2.61640085    -2.03331389
   85 C                    6.0000     1.68278976    -3.24816175    -0.38293897
   86 C                    6.0000     4.12934054    -3.64372099    -1.59319151
   87 H                    1.0000     3.65372589    -1.95691166    -2.81837778
   88 C                    6.0000     2.50554863    -4.26934581     0.04923631
   89 H                    1.0000     0.70351956    -3.09510868     0.05831303
   90 C                    6.0000     3.73204407    -4.49068283    -0.56743373
   91 H                    1.0000     5.09503497    -3.78934291    -2.06370456
   92 H                    1.0000     2.16580927    -4.92111612     0.84528341
   93 H                    1.0000     4.36044902    -5.31536023    -0.25913801
   94 C                    6.0000     1.04124569    -1.27482295    -3.33042348
   95 H                    1.0000     1.98908735    -1.00619831    -3.80966011
   96 H                    1.0000     0.66516826    -2.18618213    -3.81019885
   97 H                    1.0000     0.34283218    -0.46606132    -3.53918806

      Atomic Mass 
      ----------- 

      C                 12.000000
      O                 15.994910
      Ni                57.935300
      N                 14.003070
      H                  1.007825


 Effective nuclear repulsion energy (a.u.)    7256.6839773266

            Nuclear Dipole moment (a.u.) 
            ----------------------------
        X                 Y               Z
 ---------------- ---------------- ----------------
    -0.0000000000     0.0000000000     0.0000000000



                                Z-matrix (autoz)
                                -------- 

 Units are Angstrom for bonds and degrees for angles

      Type          Name      I     J     K     L     M      Value
      ----------- --------  ----- ----- ----- ----- ----- ----------
    1 Stretch                  1     2                       1.20810
    2 Stretch                  1     3                       1.82518
    3 Stretch                  1    77                       1.50049
    4 Stretch                  3     4                       1.90981
    5 Stretch                  3    71                       1.83256
    6 Stretch                  4     5                       1.34520
    7 Stretch                  4     6                       1.33493
    8 Stretch                  5     7                       1.46381
    9 Stretch                  5     8                       1.42777
   10 Stretch                  6     9                       1.46812
   11 Stretch                  6    10                       1.42882
   12 Stretch                  7     9                       1.53115
   13 Stretch                  7    11                       1.09119
   14 Stretch                  7    12                       1.09366
   15 Stretch                  8    13                       1.39892
   16 Stretch                  8    14                       1.39963
   17 Stretch                  9    15                       1.09299
   18 Stretch                  9    16                       1.09034
   19 Stretch                 10    17                       1.39748
   20 Stretch                 10    18                       1.39747
   21 Stretch                 13    19                       1.39098
   22 Stretch                 13    20                       1.51617
   23 Stretch                 14    21                       1.38960
   24 Stretch                 14    22                       1.51615
   25 Stretch                 17    23                       1.38988
   26 Stretch                 17    24                       1.51748
   27 Stretch                 18    25                       1.38910
   28 Stretch                 18    26                       1.51712
   29 Stretch                 19    27                       1.38405
   30 Stretch                 19    28                       1.08292
   31 Stretch                 20    29                       1.53150
   32 Stretch                 20    30                       1.52869
   33 Stretch                 20    31                       1.09206
   34 Stretch                 21    27                       1.38559
   35 Stretch                 21    32                       1.08316
   36 Stretch                 22    33                       1.52822
   37 Stretch                 22    34                       1.53088
   38 Stretch                 22    35                       1.09207
   39 Stretch                 23    36                       1.38445
   40 Stretch                 23    37                       1.08332
   41 Stretch                 24    38                       1.53129
   42 Stretch                 24    39                       1.52776
   43 Stretch                 24    40                       1.09266
   44 Stretch                 25    36                       1.38506
   45 Stretch                 25    41                       1.08231
   46 Stretch                 26    42                       1.52843
   47 Stretch                 26    43                       1.53277
   48 Stretch                 26    44                       1.09260
   49 Stretch                 27    45                       1.08244
   50 Stretch                 29    46                       1.09195
   51 Stretch                 29    47                       1.09181
   52 Stretch                 29    48                       1.09140
   53 Stretch                 30    49                       1.09180
   54 Stretch                 30    50                       1.09168
   55 Stretch                 30    51                       1.09197
   56 Stretch                 33    52                       1.08944
   57 Stretch                 33    53                       1.09180
   58 Stretch                 33    54                       1.09164
   59 Stretch                 34    55                       1.09187
   60 Stretch                 34    56                       1.09140
   61 Stretch                 34    57                       1.09199
   62 Stretch                 36    58                       1.08268
   63 Stretch                 38    59                       1.09197
   64 Stretch                 38    60                       1.09182
   65 Stretch                 38    61                       1.09187
   66 Stretch                 39    62                       1.08893
   67 Stretch                 39    63                       1.09236
   68 Stretch                 39    64                       1.09187
   69 Stretch                 42    65                       1.08751
   70 Stretch                 42    66                       1.09222
   71 Stretch                 42    67                       1.09206
   72 Stretch                 43    68                       1.09180
   73 Stretch                 43    69                       1.09186
   74 Stretch                 43    70                       1.09236
   75 Stretch                 71    83                       1.38662
   76 Stretch                 71    94                       1.44994
   77 Stretch                 72    73                       1.38926
   78 Stretch                 72    75                       1.38926
   79 Stretch                 72    81                       1.08255
   80 Stretch                 73    76                       1.38331
   81 Stretch                 73    82                       1.08231
   82 Stretch                 74    75                       1.08312
   83 Stretch                 75    78                       1.38805
   84 Stretch                 76    77                       1.39001
   85 Stretch                 76    79                       1.08214
   86 Stretch                 77    78                       1.39008
   87 Stretch                 78    80                       1.08252
   88 Stretch                 83    84                       1.40381
   89 Stretch                 83    85                       1.40092
   90 Stretch                 84    86                       1.38839
   91 Stretch                 84    87                       1.08279
   92 Stretch                 85    88                       1.38077
   93 Stretch                 85    89                       1.08494
   94 Stretch                 86    90                       1.38830
   95 Stretch                 86    91                       1.08405
   96 Stretch                 88    90                       1.39053
   97 Stretch                 88    92                       1.08348
   98 Stretch                 90    93                       1.08168
   99 Stretch                 94    95                       1.09555
  100 Stretch                 94    96                       1.09645
  101 Stretch                 94    97                       1.08879
  102 Bend                     1     3     4               109.03852
  103 Bend                     1     3    71                81.69067
  104 Bend                     1    77    76               116.36543
  105 Bend                     1    77    78               123.57872
  106 Bend                     2     1     3               120.25586
  107 Bend                     2     1    77               120.22356
  108 Bend                     3     1    77               119.50185
  109 Bend                     3     4     5               117.13247
  110 Bend                     3     4     6               135.41461
  111 Bend                     3    71    83               123.05759
  112 Bend                     3    71    94               120.01324
  113 Bend                     4     3    71               167.87451
  114 Bend                     4     5     7               114.28039
  115 Bend                     4     5     8               122.59677
  116 Bend                     4     6     9               113.65939
  117 Bend                     4     6    10               125.27907
  118 Bend                     5     4     6               106.96668
  119 Bend                     5     7     9               101.52307
  120 Bend                     5     7    11               110.79182
  121 Bend                     5     7    12               110.66373
  122 Bend                     5     8    13               118.72817
  123 Bend                     5     8    14               119.01647
  124 Bend                     6     9     7               102.42560
  125 Bend                     6     9    15               109.86408
  126 Bend                     6     9    16               110.72469
  127 Bend                     6    10    17               118.05487
  128 Bend                     6    10    18               119.31550
  129 Bend                     7     5     8               122.88642
  130 Bend                     7     9    15               112.38685
  131 Bend                     7     9    16               113.18209
  132 Bend                     8    13    19               117.83192
  133 Bend                     8    13    20               121.94940
  134 Bend                     8    14    21               117.88579
  135 Bend                     8    14    22               121.90026
  136 Bend                     9     6    10               120.84972
  137 Bend                     9     7    11               112.91260
  138 Bend                     9     7    12               112.71357
  139 Bend                    10    17    23               117.78614
  140 Bend                    10    17    24               122.17212
  141 Bend                    10    18    25               117.55169
  142 Bend                    10    18    26               121.93249
  143 Bend                    11     7    12               108.16079
  144 Bend                    13     8    14               122.25515
  145 Bend                    13    19    27               120.86502
  146 Bend                    13    19    28               119.52920
  147 Bend                    13    20    29               110.47507
  148 Bend                    13    20    30               111.70428
  149 Bend                    13    20    31               107.88153
  150 Bend                    14    21    27               120.82769
  151 Bend                    14    21    32               119.57255
  152 Bend                    14    22    33               111.68128
  153 Bend                    14    22    34               110.55909
  154 Bend                    14    22    35               108.09059
  155 Bend                    15     9    16               108.17393
  156 Bend                    17    10    18               122.61796
  157 Bend                    17    23    36               120.68689
  158 Bend                    17    23    37               119.56078
  159 Bend                    17    24    38               110.96646
  160 Bend                    17    24    39               111.60815
  161 Bend                    17    24    40               108.01948
  162 Bend                    18    25    36               120.94771
  163 Bend                    18    25    41               119.49446
  164 Bend                    18    26    42               113.04868
  165 Bend                    18    26    43               109.94167
  166 Bend                    18    26    44               107.87036
  167 Bend                    19    13    20               120.20863
  168 Bend                    19    27    21               120.29753
  169 Bend                    19    27    45               119.84362
  170 Bend                    20    29    46               111.42279
  171 Bend                    20    29    47               111.00455
  172 Bend                    20    29    48               110.48941
  173 Bend                    20    30    49               111.10494
  174 Bend                    20    30    50               110.28844
  175 Bend                    20    30    51               111.14298
  176 Bend                    21    14    22               120.21327
  177 Bend                    21    27    45               119.85862
  178 Bend                    22    33    52               110.90875
  179 Bend                    22    33    53               111.37737
  180 Bend                    22    33    54               110.29974
  181 Bend                    22    34    55               111.57875
  182 Bend                    22    34    56               110.58783
  183 Bend                    22    34    57               110.69309
  184 Bend                    23    17    24               120.03636
  185 Bend                    23    36    25               120.37404
  186 Bend                    23    36    58               119.81492
  187 Bend                    24    38    59               111.77763
  188 Bend                    24    38    60               110.80110
  189 Bend                    24    38    61               110.46813
  190 Bend                    24    39    62               111.10018
  191 Bend                    24    39    63               110.37674
  192 Bend                    24    39    64               111.13615
  193 Bend                    25    18    26               120.47714
  194 Bend                    25    36    58               119.81072
  195 Bend                    26    42    65               110.71422
  196 Bend                    26    42    66               111.24519
  197 Bend                    26    42    67               109.75881
  198 Bend                    26    43    68               112.19394
  199 Bend                    26    43    69               110.51467
  200 Bend                    26    43    70               110.13603
  201 Bend                    27    19    28               119.60566
  202 Bend                    27    21    32               119.58951
  203 Bend                    29    20    30               111.32419
  204 Bend                    29    20    31               107.79812
  205 Bend                    30    20    31               107.46911
  206 Bend                    33    22    34               111.03602
  207 Bend                    33    22    35               107.08959
  208 Bend                    34    22    35               108.21468
  209 Bend                    36    23    37               119.75120
  210 Bend                    36    25    41               119.55463
  211 Bend                    38    24    39               110.89367
  212 Bend                    38    24    40               107.96298
  213 Bend                    39    24    40               107.20322
  214 Bend                    42    26    43               110.20726
  215 Bend                    42    26    44               107.27406
  216 Bend                    43    26    44               108.33196
  217 Bend                    46    29    47               107.61466
  218 Bend                    46    29    48               108.31376
  219 Bend                    47    29    48               107.85905
  220 Bend                    49    30    50               108.57266
  221 Bend                    49    30    51               107.85723
  222 Bend                    50    30    51               107.75775
  223 Bend                    52    33    53               107.96050
  224 Bend                    52    33    54               108.32873
  225 Bend                    53    33    54               107.84692
  226 Bend                    55    34    56               108.41462
  227 Bend                    55    34    57               107.53330
  228 Bend                    56    34    57               107.89684
  229 Bend                    59    38    60               107.52278
  230 Bend                    59    38    61               108.38909
  231 Bend                    60    38    61               107.73401
  232 Bend                    62    39    63               108.48656
  233 Bend                    62    39    64               107.81869
  234 Bend                    63    39    64               107.80231
  235 Bend                    65    42    66               108.35525
  236 Bend                    65    42    67               109.34874
  237 Bend                    66    42    67               107.33501
  238 Bend                    68    43    69               108.46582
  239 Bend                    68    43    70               107.44659
  240 Bend                    69    43    70               107.93851
  241 Bend                    71    83    84               124.65367
  242 Bend                    71    83    85               117.71448
  243 Bend                    71    94    95               115.55462
  244 Bend                    71    94    96               108.57110
  245 Bend                    71    94    97               109.42292
  246 Bend                    72    73    76               119.80785
  247 Bend                    72    73    82               120.43681
  248 Bend                    72    75    74               119.96346
  249 Bend                    72    75    78               120.05473
  250 Bend                    73    72    75               120.08246
  251 Bend                    73    72    81               119.83455
  252 Bend                    73    76    77               120.25970
  253 Bend                    73    76    79               122.05693
  254 Bend                    74    75    78               119.97202
  255 Bend                    75    72    81               120.08281
  256 Bend                    75    78    77               119.78892
  257 Bend                    75    78    80               120.17502
  258 Bend                    76    73    82               119.74980
  259 Bend                    76    77    78               119.91956
  260 Bend                    77    76    79               117.67375
  261 Bend                    77    78    80               120.03448
  262 Bend                    83    71    94               116.53857
  263 Bend                    83    84    86               120.43567
  264 Bend                    83    84    87               120.23675
  265 Bend                    83    85    88               121.56921
  266 Bend                    83    85    89               117.32434
  267 Bend                    84    83    85               117.61436
  268 Bend                    84    86    90               121.05395
  269 Bend                    84    86    91               119.36264
  270 Bend                    85    88    90               120.29776
  271 Bend                    85    88    92               119.21024
  272 Bend                    86    84    87               119.32451
  273 Bend                    86    90    88               118.88012
  274 Bend                    86    90    93               120.62749
  275 Bend                    88    85    89               120.98863
  276 Bend                    88    90    93               120.48939
  277 Bend                    90    86    91               119.58215
  278 Bend                    90    88    92               120.44126
  279 Bend                    95    94    96               108.00775
  280 Bend                    95    94    97               106.79603
  281 Bend                    96    94    97               108.27024
  282 Torsion                  1     3     4     5        -170.49786
  283 Torsion                  1     3     4     6          18.74223
  284 Torsion                  1     3    71    83          98.97108
  285 Torsion                  1     3    71    94         -73.60198
  286 Torsion                  1    77    76    73         172.91053
  287 Torsion                  1    77    76    79          -5.98439
  288 Torsion                  1    77    78    75        -173.12521
  289 Torsion                  1    77    78    80           7.33141
  290 Torsion                  2     1     3     4         -89.00739
  291 Torsion                  2     1     3    71          85.16856
  292 Torsion                  2     1    77    76          19.88995
  293 Torsion                  2     1    77    78        -164.36785
  294 Torsion                  3     1    77    76        -161.68030
  295 Torsion                  3     1    77    78          14.06189
  296 Torsion                  3     4     5     7        -175.95557
  297 Torsion                  3     4     5     8           9.48573
  298 Torsion                  3     4     6     9         166.54324
  299 Torsion                  3     4     6    10          -8.17879
  300 Torsion                  3    71    83    84        -137.03636
  301 Torsion                  3    71    83    85          44.52544
  302 Torsion                  3    71    94    95         118.89786
  303 Torsion                  3    71    94    96        -119.62651
  304 Torsion                  3    71    94    97          -1.64775
  305 Torsion                  4     3     1    77          92.56339
  306 Torsion                  4     3    71    83        -108.20080
  307 Torsion                  4     3    71    94          79.22614
  308 Torsion                  4     5     7     9           8.42904
  309 Torsion                  4     5     7    11         128.58953
  310 Torsion                  4     5     7    12        -111.44208
  311 Torsion                  4     5     8    13         -90.20532
  312 Torsion                  4     5     8    14          89.63027
  313 Torsion                  4     6     9     7           9.78300
  314 Torsion                  4     6     9    15        -109.83853
  315 Torsion                  4     6     9    16         130.73703
  316 Torsion                  4     6    10    17        -100.24060
  317 Torsion                  4     6    10    18          80.96966
  318 Torsion                  5     4     3    71          38.05798
  319 Torsion                  5     4     6     9          -4.86434
  320 Torsion                  5     4     6    10        -179.58637
  321 Torsion                  5     7     9     6          -9.98749
  322 Torsion                  5     7     9    15         107.85587
  323 Torsion                  5     7     9    16        -129.23261
  324 Torsion                  5     8    13    19         177.64695
  325 Torsion                  5     8    13    20          -3.50500
  326 Torsion                  5     8    14    21        -178.38250
  327 Torsion                  5     8    14    22           1.91557
  328 Torsion                  6     4     3    71        -132.70193
  329 Torsion                  6     4     5     7          -2.72338
  330 Torsion                  6     4     5     8        -177.28209
  331 Torsion                  6     9     7    11        -128.63888
  332 Torsion                  6     9     7    12         108.42122
  333 Torsion                  6    10    17    23         179.26747
  334 Torsion                  6    10    17    24          -1.57633
  335 Torsion                  6    10    18    25        -179.17893
  336 Torsion                  6    10    18    26           3.07416
  337 Torsion                  7     5     8    13          95.70278
  338 Torsion                  7     5     8    14         -84.46163
  339 Torsion                  7     9     6    10        -175.23506
  340 Torsion                  8     5     7     9        -177.03002
  341 Torsion                  8     5     7    11         -56.86954
  342 Torsion                  8     5     7    12          63.09885
  343 Torsion                  8    13    19    27           1.18119
  344 Torsion                  8    13    19    28        -178.69141
  345 Torsion                  8    13    20    29        -114.24218
  346 Torsion                  8    13    20    30         121.25769
  347 Torsion                  8    13    20    31           3.35849
  348 Torsion                  8    14    21    27           0.31348
  349 Torsion                  8    14    21    32         179.14411
  350 Torsion                  8    14    22    33        -123.23985
  351 Torsion                  8    14    22    34         112.58867
  352 Torsion                  8    14    22    35          -5.68750
  353 Torsion                  9     6    10    17          85.39156
  354 Torsion                  9     6    10    18         -93.39818
  355 Torsion                 10     6     9    15          65.14341
  356 Torsion                 10     6     9    16         -54.28103
  357 Torsion                 10    17    23    36           0.47812
  358 Torsion                 10    17    23    37        -179.13375
  359 Torsion                 10    17    24    38        -115.42053
  360 Torsion                 10    17    24    39         120.34573
  361 Torsion                 10    17    24    40           2.74076
  362 Torsion                 10    18    25    36          -0.69456
  363 Torsion                 10    18    25    41         178.65142
  364 Torsion                 10    18    26    42        -134.13564
  365 Torsion                 10    18    26    43         102.24331
  366 Torsion                 10    18    26    44         -15.69523
  367 Torsion                 11     7     9    15         -10.79552
  368 Torsion                 11     7     9    16         112.11600
  369 Torsion                 12     7     9    15        -133.73542
  370 Torsion                 12     7     9    16         -10.82390
  371 Torsion                 13     8    14    21           1.44702
  372 Torsion                 13     8    14    22        -178.25492
  373 Torsion                 13    19    27    21           0.50206
  374 Torsion                 13    19    27    45        -179.32249
  375 Torsion                 13    20    29    46          56.11726
  376 Torsion                 13    20    29    47         -63.80717
  377 Torsion                 13    20    29    48         176.57814
  378 Torsion                 13    20    30    49         -56.78092
  379 Torsion                 13    20    30    50        -177.22354
  380 Torsion                 13    20    30    51          63.33047
  381 Torsion                 14     8    13    19          -2.18304
  382 Torsion                 14     8    13    20         176.66501
  383 Torsion                 14    21    27    19          -1.27588
  384 Torsion                 14    21    27    45         178.54865
  385 Torsion                 14    22    33    52          56.21741
  386 Torsion                 14    22    33    53         -64.04969
  387 Torsion                 14    22    33    54         176.23376
  388 Torsion                 14    22    34    55         -56.06232
  389 Torsion                 14    22    34    56        -176.82194
  390 Torsion                 14    22    34    57          63.65356
  391 Torsion                 17    10    18    25           2.08912
  392 Torsion                 17    10    18    26        -175.65779
  393 Torsion                 17    23    36    25           0.84371
  394 Torsion                 17    23    36    58        -179.36252
  395 Torsion                 17    24    38    59          56.12705
  396 Torsion                 17    24    38    60         -63.78059
  397 Torsion                 17    24    38    61         176.90595
  398 Torsion                 17    24    39    62         -56.69116
  399 Torsion                 17    24    39    63        -177.08117
  400 Torsion                 17    24    39    64          63.36375
  401 Torsion                 18    10    17    23          -1.98541
  402 Torsion                 18    10    17    24         177.17080
  403 Torsion                 18    25    36    23          -0.73191
  404 Torsion                 18    25    36    58         179.47431
  405 Torsion                 18    26    42    65          52.41176
  406 Torsion                 18    26    42    66         -68.13488
  407 Torsion                 18    26    42    67         173.22294
  408 Torsion                 18    26    43    68         -55.72814
  409 Torsion                 18    26    43    69        -176.91958
  410 Torsion                 18    26    43    70          63.90694
  411 Torsion                 19    13    20    29          64.57904
  412 Torsion                 19    13    20    30         -59.92108
  413 Torsion                 19    13    20    31        -177.82028
  414 Torsion                 19    27    21    32         179.89369
  415 Torsion                 20    13    19    27        -177.68777
  416 Torsion                 20    13    19    28           2.43963
  417 Torsion                 21    14    22    33          57.06502
  418 Torsion                 21    14    22    34         -67.10646
  419 Torsion                 21    14    22    35         174.61737
  420 Torsion                 21    27    19    28        -179.62543
  421 Torsion                 22    14    21    27        -179.97934
  422 Torsion                 22    14    21    32          -1.14872
  423 Torsion                 23    17    24    38          63.71717
  424 Torsion                 23    17    24    39         -60.51657
  425 Torsion                 23    17    24    40        -178.12154
  426 Torsion                 23    36    25    41         179.92249
  427 Torsion                 24    17    23    36        -178.69685
  428 Torsion                 24    17    23    37           1.69127
  429 Torsion                 25    18    26    42          48.18222
  430 Torsion                 25    18    26    43         -75.43883
  431 Torsion                 25    18    26    44         166.62263
  432 Torsion                 25    36    23    37        -179.54515
  433 Torsion                 26    18    25    36         177.08677
  434 Torsion                 26    18    25    41          -3.56725
  435 Torsion                 28    19    27    45           0.55002
  436 Torsion                 29    20    30    49         179.19495
  437 Torsion                 29    20    30    50          58.75233
  438 Torsion                 29    20    30    51         -60.69366
  439 Torsion                 30    20    29    46        -179.16549
  440 Torsion                 30    20    29    47          60.91007
  441 Torsion                 30    20    29    48         -58.70462
  442 Torsion                 31    20    29    46         -61.53470
  443 Torsion                 31    20    29    47         178.54086
  444 Torsion                 31    20    29    48          58.92617
  445 Torsion                 31    20    30    49          61.36522
  446 Torsion                 31    20    30    50         -59.07740
  447 Torsion                 31    20    30    51        -178.52339
  448 Torsion                 32    21    27    45          -0.28178
  449 Torsion                 33    22    34    55         179.39706
  450 Torsion                 33    22    34    56          58.63744
  451 Torsion                 33    22    34    57         -60.88706
  452 Torsion                 34    22    33    52        -179.87929
  453 Torsion                 34    22    33    53          59.85360
  454 Torsion                 34    22    33    54         -59.86294
  455 Torsion                 35    22    33    52         -61.93551
  456 Torsion                 35    22    33    53         177.79738
  457 Torsion                 35    22    33    54          58.08084
  458 Torsion                 35    22    34    55          62.13810
  459 Torsion                 35    22    34    56         -58.62152
  460 Torsion                 35    22    34    57        -178.14602
  461 Torsion                 37    23    36    58           0.24862
  462 Torsion                 38    24    39    62         179.03423
  463 Torsion                 38    24    39    63          58.64421
  464 Torsion                 38    24    39    64         -60.91087
  465 Torsion                 39    24    38    59        -179.23396
  466 Torsion                 39    24    38    60          60.85840
  467 Torsion                 39    24    38    61         -58.45506
  468 Torsion                 40    24    38    59         -62.06850
  469 Torsion                 40    24    38    60         178.02387
  470 Torsion                 40    24    38    61          58.71041
  471 Torsion                 40    24    39    62          61.40423
  472 Torsion                 40    24    39    63         -58.98578
  473 Torsion                 40    24    39    64        -178.54086
  474 Torsion                 41    25    36    58           0.12872
  475 Torsion                 42    26    43    68         179.00784
  476 Torsion                 42    26    43    69          57.81640
  477 Torsion                 42    26    43    70         -61.35708
  478 Torsion                 43    26    42    65         175.88644
  479 Torsion                 43    26    42    66          55.33980
  480 Torsion                 43    26    42    67         -63.30238
  481 Torsion                 44    26    42    65         -66.37481
  482 Torsion                 44    26    42    66         173.07855
  483 Torsion                 44    26    42    67          54.43637
  484 Torsion                 44    26    43    68          61.92417
  485 Torsion                 44    26    43    69         -59.26727
  486 Torsion                 44    26    43    70        -178.44076
  487 Torsion                 71     3     1    77         -93.26067
  488 Torsion                 71    83    84    86        -174.60445
  489 Torsion                 71    83    84    87           6.03643
  490 Torsion                 71    83    85    88         174.58038
  491 Torsion                 71    83    85    89          -1.50989
  492 Torsion                 72    73    76    77           0.93518
  493 Torsion                 72    73    76    79         179.78043
  494 Torsion                 72    75    78    77           0.09330
  495 Torsion                 72    75    78    80         179.63603
  496 Torsion                 73    72    75    74         178.98210
  497 Torsion                 73    72    75    78          -2.15670
  498 Torsion                 73    76    77    78          -2.99701
  499 Torsion                 74    75    72    81          -1.17070
  500 Torsion                 74    75    78    77         178.95440
  501 Torsion                 74    75    78    80          -1.50287
  502 Torsion                 75    72    73    76           1.64166
  503 Torsion                 75    72    73    82        -179.21637
  504 Torsion                 75    78    77    76           2.47299
  505 Torsion                 76    73    72    81        -178.20593
  506 Torsion                 76    77    78    80        -177.07039
  507 Torsion                 77    76    73    82        -178.21272
  508 Torsion                 78    75    72    81         177.69050
  509 Torsion                 78    77    76    79         178.10808
  510 Torsion                 79    76    73    82           0.63253
  511 Torsion                 81    72    73    82           0.93604
  512 Torsion                 83    71    94    95         -54.14674
  513 Torsion                 83    71    94    96          67.32889
  514 Torsion                 83    71    94    97        -174.69235
  515 Torsion                 83    84    86    90          -0.89005
  516 Torsion                 83    84    86    91         178.70009
  517 Torsion                 83    85    88    90           1.10515
  518 Torsion                 83    85    88    92        -176.31576
  519 Torsion                 84    83    71    94          35.77644
  520 Torsion                 84    83    85    88          -3.96975
  521 Torsion                 84    83    85    89         179.93999
  522 Torsion                 84    86    90    88          -2.06337
  523 Torsion                 84    86    90    93         177.30962
  524 Torsion                 85    83    71    94        -142.66176
  525 Torsion                 85    83    84    86           3.83519
  526 Torsion                 85    83    84    87        -175.52393
  527 Torsion                 85    88    90    86           1.95985
  528 Torsion                 85    88    90    93        -177.41403
  529 Torsion                 86    90    88    92         179.34877
  530 Torsion                 87    84    86    90         178.47488
  531 Torsion                 87    84    86    91          -1.93497
  532 Torsion                 88    90    86    91         178.34738
  533 Torsion                 89    85    88    90         177.05310
  534 Torsion                 89    85    88    92          -0.36781
  535 Torsion                 91    86    90    93          -2.27964
  536 Torsion                 92    88    90    93          -0.02511


            XYZ format geometry
            -------------------
    97
 geometry
 C                     1.40835612     0.77133699    -1.20937143
 O                     1.29104074     1.43902388    -2.20933532
 Ni                    0.12593062    -0.44787024    -0.76194459
 C                    -1.20043794     0.40889035     0.31232918
 N                    -2.11960472    -0.38008603     0.89731042
 N                    -1.56852824     1.67151344     0.54108471
 C                    -3.15905606     0.34656184     1.62824526
 C                    -2.01779402    -1.80420291     0.90530741
 C                    -2.86191366     1.79345096     1.22495003
 C                    -0.86920640     2.83066343     0.08410115
 H                    -4.15226372     0.01528743     1.32086424
 H                    -3.06210442     0.17982966     2.70476753
 C                    -2.60040666    -2.52585901    -0.14195184
 C                    -1.33725188    -2.43030021     1.95593987
 H                    -3.60955551     2.19562483     0.53653101
 H                    -2.78564026     2.46949517     2.07699967
 C                    -0.04109475     3.49848283     0.99030115
 C                    -1.05436343     3.26757158    -1.23034193
 C                    -2.44719878    -3.90837324    -0.14199544
 C                    -3.39932588    -1.84682927    -1.23712889
 C                    -1.22266734    -3.81476886     1.92250648
 C                    -0.74234131    -1.64307432     3.10705338
 C                     0.64855540     4.61622437     0.53554877
 C                     0.10390483     3.05155402     2.43321035
 C                    -0.34321184     4.38784714    -1.64126391
 C                    -2.03053064     2.58774623    -2.17192324
 C                    -1.76113571    -4.54676588     0.87651813
 H                    -2.86872448    -4.49206226    -0.95090463
 C                    -4.86860767    -2.27396584    -1.17178996
 C                    -2.80382161    -2.11355052    -2.61956722
 H                    -3.35692537    -0.76938015    -1.06423410
 H                    -0.68943327    -4.32631267     2.71448229
 C                     0.75535078    -1.90726590     3.25733369
 C                    -1.48754422    -1.94830857     4.40901536
 H                    -0.86021715    -0.57981635     2.88747829
 C                     0.50537355     5.05164324    -0.77082253
 H                     1.30940897     5.14740002     1.20987142
 C                    -0.43559894     4.11556854     3.39324293
 C                     1.55149569     2.69770288     2.76982186
 H                    -0.49011580     2.14433927     2.56737418
 H                    -0.44604115     4.74041618    -2.65936306
 C                    -1.44364986     2.33189573    -3.55980628
 C                    -3.31332577     3.41909551    -2.28455968
 H                    -2.28739812     1.61577563    -1.74406947
 H                    -1.64233142    -5.62243930     0.85425544
 H                    -5.29975056    -2.07064391    -0.18937540
 H                    -4.97414295    -3.34352970    -1.36398151
 H                    -5.45543125    -1.73975998    -1.92105994
 H                    -1.76064536    -1.79477543    -2.66643188
 H                    -3.36663950    -1.57510825    -3.38447775
 H                    -2.84043482    -3.17677579    -2.86574273
 H                     1.28387291    -1.68739062     2.33040066
 H                     0.95150192    -2.94926932     3.51770020
 H                     1.17303668    -1.28062325     4.04760617
 H                    -2.55754471    -1.75238202     4.31468855
 H                    -1.09648055    -1.34029197     5.22665387
 H                    -1.36839557    -2.99816242     4.68479727
 H                     1.05730120     5.91793047    -1.11306148
 H                    -1.47465533     4.36974954     3.17381223
 H                     0.14968684     5.03450897     3.32212938
 H                    -0.37767889     3.76338362     4.42512625
 H                     1.93312881     1.92891613     2.09967241
 H                     1.62446273     2.33011524     3.79588315
 H                     2.20108339     3.57081898     2.68103145
 H                    -0.49527582     1.80491135    -3.48524461
 H                    -1.27574083     3.26782800    -4.09719755
 H                    -2.14234125     1.73736276    -4.15222690
 H                    -3.77010197     3.60659090    -1.31079447
 H                    -4.04404835     2.91132171    -2.91731330
 H                    -3.09416176     4.38945398    -2.73579712
 N                     1.10542713    -1.49910735    -1.89937774
 C                     4.74433034     1.46470987     1.36047947
 C                     4.40576876     2.36892393     0.36157147
 H                     4.32868178    -0.44496985     2.24738915
 C                     4.05230892     0.26585317     1.47830086
 C                     3.35567641     2.08735182    -0.49374366
 C                     2.62664928     0.91324693    -0.34502734
 C                     2.99194768    -0.01135440     0.62655863
 H                     3.05871457     2.76692950    -1.28179038
 H                     2.45512389    -0.94743054     0.71279022
 H                     5.54709779     1.69773329     2.04835168
 H                     4.94934283     3.29893471     0.25663898
 C                     2.03931165    -2.42445342    -1.45856836
 C                     3.30560408    -2.61640085    -2.03331389
 C                     1.68278976    -3.24816175    -0.38293897
 C                     4.12934054    -3.64372099    -1.59319151
 H                     3.65372589    -1.95691166    -2.81837778
 C                     2.50554863    -4.26934581     0.04923631
 H                     0.70351956    -3.09510868     0.05831303
 C                     3.73204407    -4.49068283    -0.56743373
 H                     5.09503497    -3.78934291    -2.06370456
 H                     2.16580927    -4.92111612     0.84528341
 H                     4.36044902    -5.31536023    -0.25913801
 C                     1.04124569    -1.27482295    -3.33042348
 H                     1.98908735    -1.00619831    -3.80966011
 H                     0.66516826    -2.18618213    -3.81019885
 H                     0.34283218    -0.46606132    -3.53918806

 ==============================================================================
                                internuclear distances
 ------------------------------------------------------------------------------
       center one      |      center two      | atomic units |  angstroms
 ------------------------------------------------------------------------------
    2 O                |   1 C                |     2.28297  |     1.20810
    3 Ni               |   1 C                |     3.44909  |     1.82518
    4 C                |   3 Ni               |     3.60901  |     1.90981
    5 N                |   4 C                |     2.54205  |     1.34520
    6 N                |   4 C                |     2.52265  |     1.33493
    7 C                |   5 N                |     2.76620  |     1.46381
    8 C                |   5 N                |     2.69810  |     1.42777
    9 C                |   6 N                |     2.77435  |     1.46812
    9 C                |   7 C                |     2.89346  |     1.53115
   10 C                |   6 N                |     2.70007  |     1.42882
   11 H                |   7 C                |     2.06204  |     1.09119
   12 H                |   7 C                |     2.06672  |     1.09366
   13 C                |   8 C                |     2.64358  |     1.39892
   14 C                |   8 C                |     2.64492  |     1.39963
   15 H                |   9 C                |     2.06546  |     1.09299
   16 H                |   9 C                |     2.06044  |     1.09034
   17 C                |  10 C                |     2.64085  |     1.39748
   18 C                |  10 C                |     2.64084  |     1.39747
   19 C                |  13 C                |     2.62857  |     1.39098
   20 C                |  13 C                |     2.86514  |     1.51617
   21 C                |  14 C                |     2.62597  |     1.38960
   22 C                |  14 C                |     2.86510  |     1.51615
   23 C                |  17 C                |     2.62649  |     1.38988
   24 C                |  17 C                |     2.86763  |     1.51748
   25 C                |  18 C                |     2.62503  |     1.38910
   26 C                |  18 C                |     2.86693  |     1.51712
   27 C                |  19 C                |     2.61548  |     1.38405
   27 C                |  21 C                |     2.61839  |     1.38559
   28 H                |  19 C                |     2.04642  |     1.08292
   29 C                |  20 C                |     2.89412  |     1.53150
   30 C                |  20 C                |     2.88881  |     1.52869
   31 H                |  20 C                |     2.06369  |     1.09206
   32 H                |  21 C                |     2.04688  |     1.08316
   33 C                |  22 C                |     2.88792  |     1.52822
   34 C                |  22 C                |     2.89295  |     1.53088
   35 H                |  22 C                |     2.06372  |     1.09207
   36 C                |  23 C                |     2.61623  |     1.38445
   36 C                |  25 C                |     2.61738  |     1.38506
   37 H                |  23 C                |     2.04718  |     1.08332
   38 C                |  24 C                |     2.89372  |     1.53129
   39 C                |  24 C                |     2.88704  |     1.52776
   40 H                |  24 C                |     2.06482  |     1.09266
   41 H                |  25 C                |     2.04528  |     1.08231
   42 C                |  26 C                |     2.88832  |     1.52843
   43 C                |  26 C                |     2.89652  |     1.53277
   44 H                |  26 C                |     2.06471  |     1.09260
   45 H                |  27 C                |     2.04552  |     1.08244
   46 H                |  29 C                |     2.06349  |     1.09195
   47 H                |  29 C                |     2.06322  |     1.09181
   48 H                |  29 C                |     2.06244  |     1.09140
   49 H                |  30 C                |     2.06321  |     1.09180
   50 H                |  30 C                |     2.06298  |     1.09168
   51 H                |  30 C                |     2.06352  |     1.09197
   52 H                |  33 C                |     2.05875  |     1.08944
   53 H                |  33 C                |     2.06321  |     1.09180
   54 H                |  33 C                |     2.06290  |     1.09164
   55 H                |  34 C                |     2.06334  |     1.09187
   56 H                |  34 C                |     2.06244  |     1.09140
   57 H                |  34 C                |     2.06356  |     1.09199
   58 H                |  36 C                |     2.04598  |     1.08268
   59 H                |  38 C                |     2.06352  |     1.09197
   60 H                |  38 C                |     2.06324  |     1.09182
   61 H                |  38 C                |     2.06333  |     1.09187
   62 H                |  39 C                |     2.05779  |     1.08893
   63 H                |  39 C                |     2.06426  |     1.09236
   64 H                |  39 C                |     2.06333  |     1.09187
   65 H                |  42 C                |     2.05510  |     1.08751
   66 H                |  42 C                |     2.06400  |     1.09222
   67 H                |  42 C                |     2.06370  |     1.09206
   68 H                |  43 C                |     2.06319  |     1.09180
   69 H                |  43 C                |     2.06332  |     1.09186
   70 H                |  43 C                |     2.06426  |     1.09236
   71 N                |   3 Ni               |     3.46303  |     1.83256
   73 C                |  72 C                |     2.62532  |     1.38926
   75 C                |  72 C                |     2.62531  |     1.38926
   75 C                |  74 H                |     2.04680  |     1.08312
   76 C                |  73 C                |     2.61407  |     1.38331
   77 C                |   1 C                |     2.83551  |     1.50049
   77 C                |  76 C                |     2.62673  |     1.39001
   78 C                |  75 C                |     2.62303  |     1.38805
   78 C                |  77 C                |     2.62686  |     1.39008
   79 H                |  76 C                |     2.04495  |     1.08214
   80 H                |  78 C                |     2.04567  |     1.08252
   81 H                |  72 C                |     2.04571  |     1.08255
   82 H                |  73 C                |     2.04528  |     1.08231
   83 C                |  71 N                |     2.62033  |     1.38662
   84 C                |  83 C                |     2.65281  |     1.40381
   85 C                |  83 C                |     2.64736  |     1.40092
   86 C                |  84 C                |     2.62368  |     1.38839
   87 H                |  84 C                |     2.04618  |     1.08279
   88 C                |  85 C                |     2.60928  |     1.38077
   89 H                |  85 C                |     2.05024  |     1.08494
   90 C                |  86 C                |     2.62350  |     1.38830
   90 C                |  88 C                |     2.62771  |     1.39053
   91 H                |  86 C                |     2.04855  |     1.08405
   92 H                |  88 C                |     2.04747  |     1.08348
   93 H                |  90 C                |     2.04408  |     1.08168
   94 C                |  71 N                |     2.73998  |     1.44994
   95 H                |  94 C                |     2.07029  |     1.09555
   96 H                |  94 C                |     2.07198  |     1.09645
   97 H                |  94 C                |     2.05751  |     1.08879
 ------------------------------------------------------------------------------
                         number of included internuclear distances:        101
 ==============================================================================



 ==============================================================================
                                 internuclear angles
 ------------------------------------------------------------------------------
        center 1       |       center 2       |       center 3       |  degrees
 ------------------------------------------------------------------------------
    2 O                |   1 C                |   3 Ni               |   120.26
    2 O                |   1 C                |  77 C                |   120.22
    3 Ni               |   1 C                |  77 C                |   119.50
    1 C                |   3 Ni               |   4 C                |   109.04
    1 C                |   3 Ni               |  71 N                |    81.69
    4 C                |   3 Ni               |  71 N                |   167.87
    3 Ni               |   4 C                |   5 N                |   117.13
    3 Ni               |   4 C                |   6 N                |   135.41
    5 N                |   4 C                |   6 N                |   106.97
    4 C                |   5 N                |   7 C                |   114.28
    4 C                |   5 N                |   8 C                |   122.60
    7 C                |   5 N                |   8 C                |   122.89
    4 C                |   6 N                |   9 C                |   113.66
    4 C                |   6 N                |  10 C                |   125.28
    9 C                |   6 N                |  10 C                |   120.85
    5 N                |   7 C                |   9 C                |   101.52
    5 N                |   7 C                |  11 H                |   110.79
    5 N                |   7 C                |  12 H                |   110.66
    9 C                |   7 C                |  11 H                |   112.91
    9 C                |   7 C                |  12 H                |   112.71
   11 H                |   7 C                |  12 H                |   108.16
    5 N                |   8 C                |  13 C                |   118.73
    5 N                |   8 C                |  14 C                |   119.02
   13 C                |   8 C                |  14 C                |   122.26
    6 N                |   9 C                |   7 C                |   102.43
    6 N                |   9 C                |  15 H                |   109.86
    6 N                |   9 C                |  16 H                |   110.72
    7 C                |   9 C                |  15 H                |   112.39
    7 C                |   9 C                |  16 H                |   113.18
   15 H                |   9 C                |  16 H                |   108.17
    6 N                |  10 C                |  17 C                |   118.05
    6 N                |  10 C                |  18 C                |   119.32
   17 C                |  10 C                |  18 C                |   122.62
    8 C                |  13 C                |  19 C                |   117.83
    8 C                |  13 C                |  20 C                |   121.95
   19 C                |  13 C                |  20 C                |   120.21
    8 C                |  14 C                |  21 C                |   117.89
    8 C                |  14 C                |  22 C                |   121.90
   21 C                |  14 C                |  22 C                |   120.21
   10 C                |  17 C                |  23 C                |   117.79
   10 C                |  17 C                |  24 C                |   122.17
   23 C                |  17 C                |  24 C                |   120.04
   10 C                |  18 C                |  25 C                |   117.55
   10 C                |  18 C                |  26 C                |   121.93
   25 C                |  18 C                |  26 C                |   120.48
   13 C                |  19 C                |  27 C                |   120.87
   13 C                |  19 C                |  28 H                |   119.53
   27 C                |  19 C                |  28 H                |   119.61
   13 C                |  20 C                |  29 C                |   110.48
   13 C                |  20 C                |  30 C                |   111.70
   13 C                |  20 C                |  31 H                |   107.88
   29 C                |  20 C                |  30 C                |   111.32
   29 C                |  20 C                |  31 H                |   107.80
   30 C                |  20 C                |  31 H                |   107.47
   14 C                |  21 C                |  27 C                |   120.83
   14 C                |  21 C                |  32 H                |   119.57
   27 C                |  21 C                |  32 H                |   119.59
   14 C                |  22 C                |  33 C                |   111.68
   14 C                |  22 C                |  34 C                |   110.56
   14 C                |  22 C                |  35 H                |   108.09
   33 C                |  22 C                |  34 C                |   111.04
   33 C                |  22 C                |  35 H                |   107.09
   34 C                |  22 C                |  35 H                |   108.21
   17 C                |  23 C                |  36 C                |   120.69
   17 C                |  23 C                |  37 H                |   119.56
   36 C                |  23 C                |  37 H                |   119.75
   17 C                |  24 C                |  38 C                |   110.97
   17 C                |  24 C                |  39 C                |   111.61
   17 C                |  24 C                |  40 H                |   108.02
   38 C                |  24 C                |  39 C                |   110.89
   38 C                |  24 C                |  40 H                |   107.96
   39 C                |  24 C                |  40 H                |   107.20
   18 C                |  25 C                |  36 C                |   120.95
   18 C                |  25 C                |  41 H                |   119.49
   36 C                |  25 C                |  41 H                |   119.55
   18 C                |  26 C                |  42 C                |   113.05
   18 C                |  26 C                |  43 C                |   109.94
   18 C                |  26 C                |  44 H                |   107.87
   42 C                |  26 C                |  43 C                |   110.21
   42 C                |  26 C                |  44 H                |   107.27
   43 C                |  26 C                |  44 H                |   108.33
   19 C                |  27 C                |  21 C                |   120.30
   19 C                |  27 C                |  45 H                |   119.84
   21 C                |  27 C                |  45 H                |   119.86
   20 C                |  29 C                |  46 H                |   111.42
   20 C                |  29 C                |  47 H                |   111.00
   20 C                |  29 C                |  48 H                |   110.49
   46 H                |  29 C                |  47 H                |   107.61
   46 H                |  29 C                |  48 H                |   108.31
   47 H                |  29 C                |  48 H                |   107.86
   20 C                |  30 C                |  49 H                |   111.10
   20 C                |  30 C                |  50 H                |   110.29
   20 C                |  30 C                |  51 H                |   111.14
   49 H                |  30 C                |  50 H                |   108.57
   49 H                |  30 C                |  51 H                |   107.86
   50 H                |  30 C                |  51 H                |   107.76
   22 C                |  33 C                |  52 H                |   110.91
   22 C                |  33 C                |  53 H                |   111.38
   22 C                |  33 C                |  54 H                |   110.30
   52 H                |  33 C                |  53 H                |   107.96
   52 H                |  33 C                |  54 H                |   108.33
   53 H                |  33 C                |  54 H                |   107.85
   22 C                |  34 C                |  55 H                |   111.58
   22 C                |  34 C                |  56 H                |   110.59
   22 C                |  34 C                |  57 H                |   110.69
   55 H                |  34 C                |  56 H                |   108.41
   55 H                |  34 C                |  57 H                |   107.53
   56 H                |  34 C                |  57 H                |   107.90
   23 C                |  36 C                |  25 C                |   120.37
   23 C                |  36 C                |  58 H                |   119.81
   25 C                |  36 C                |  58 H                |   119.81
   24 C                |  38 C                |  59 H                |   111.78
   24 C                |  38 C                |  60 H                |   110.80
   24 C                |  38 C                |  61 H                |   110.47
   59 H                |  38 C                |  60 H                |   107.52
   59 H                |  38 C                |  61 H                |   108.39
   60 H                |  38 C                |  61 H                |   107.73
   24 C                |  39 C                |  62 H                |   111.10
   24 C                |  39 C                |  63 H                |   110.38
   24 C                |  39 C                |  64 H                |   111.14
   62 H                |  39 C                |  63 H                |   108.49
   62 H                |  39 C                |  64 H                |   107.82
   63 H                |  39 C                |  64 H                |   107.80
   26 C                |  42 C                |  65 H                |   110.71
   26 C                |  42 C                |  66 H                |   111.25
   26 C                |  42 C                |  67 H                |   109.76
   65 H                |  42 C                |  66 H                |   108.36
   65 H                |  42 C                |  67 H                |   109.35
   66 H                |  42 C                |  67 H                |   107.34
   26 C                |  43 C                |  68 H                |   112.19
   26 C                |  43 C                |  69 H                |   110.51
   26 C                |  43 C                |  70 H                |   110.14
   68 H                |  43 C                |  69 H                |   108.47
   68 H                |  43 C                |  70 H                |   107.45
   69 H                |  43 C                |  70 H                |   107.94
    3 Ni               |  71 N                |  83 C                |   123.06
    3 Ni               |  71 N                |  94 C                |   120.01
   83 C                |  71 N                |  94 C                |   116.54
   73 C                |  72 C                |  75 C                |   120.08
   73 C                |  72 C                |  81 H                |   119.83
   75 C                |  72 C                |  81 H                |   120.08
   72 C                |  73 C                |  76 C                |   119.81
   72 C                |  73 C                |  82 H                |   120.44
   76 C                |  73 C                |  82 H                |   119.75
   72 C                |  75 C                |  74 H                |   119.96
   72 C                |  75 C                |  78 C                |   120.05
   74 H                |  75 C                |  78 C                |   119.97
   73 C                |  76 C                |  77 C                |   120.26
   73 C                |  76 C                |  79 H                |   122.06
   77 C                |  76 C                |  79 H                |   117.67
    1 C                |  77 C                |  76 C                |   116.37
    1 C                |  77 C                |  78 C                |   123.58
   76 C                |  77 C                |  78 C                |   119.92
   75 C                |  78 C                |  77 C                |   119.79
   75 C                |  78 C                |  80 H                |   120.18
   77 C                |  78 C                |  80 H                |   120.03
   71 N                |  83 C                |  84 C                |   124.65
   71 N                |  83 C                |  85 C                |   117.71
   84 C                |  83 C                |  85 C                |   117.61
   83 C                |  84 C                |  86 C                |   120.44
   83 C                |  84 C                |  87 H                |   120.24
   86 C                |  84 C                |  87 H                |   119.32
   83 C                |  85 C                |  88 C                |   121.57
   83 C                |  85 C                |  89 H                |   117.32
   88 C                |  85 C                |  89 H                |   120.99
   84 C                |  86 C                |  90 C                |   121.05
   84 C                |  86 C                |  91 H                |   119.36
   90 C                |  86 C                |  91 H                |   119.58
   85 C                |  88 C                |  90 C                |   120.30
   85 C                |  88 C                |  92 H                |   119.21
   90 C                |  88 C                |  92 H                |   120.44
   86 C                |  90 C                |  88 C                |   118.88
   86 C                |  90 C                |  93 H                |   120.63
   88 C                |  90 C                |  93 H                |   120.49
   71 N                |  94 C                |  95 H                |   115.55
   71 N                |  94 C                |  96 H                |   108.57
   71 N                |  94 C                |  97 H                |   109.42
   95 H                |  94 C                |  96 H                |   108.01
   95 H                |  94 C                |  97 H                |   106.80
   96 H                |  94 C                |  97 H                |   108.27
 ------------------------------------------------------------------------------
                            number of included internuclear angles:        180
 ==============================================================================



                      Basis "ao basis" -> "" (cartesian)
                      -----
  C (Carbon)
  ----------
            Exponent  Coefficients 
       -------------- ---------------------------------------------------------
  1 S  8.50603840E+03  0.000534
  1 S  1.27573290E+03  0.004125
  1 S  2.90311870E+02  0.021171
  1 S  8.20562000E+01  0.082418
  1 S  2.64796410E+01  0.240129

  2 S  9.24145850E+00  1.000000

  3 S  3.36435300E+00  1.000000

  4 S  8.71741640E-01  1.000000

  5 S  3.63523520E-01  1.000000

  6 S  1.28731350E-01  1.000000

  7 P  3.47094960E+01  0.005330
  7 P  7.95908830E+00  0.035866
  7 P  2.37869720E+00  0.142003
  7 P  8.15400650E-01  0.342031

  8 P  2.89537850E-01  1.000000

  9 P  1.00847540E-01  1.000000

  H (Hydrogen)
  ------------
            Exponent  Coefficients 
       -------------- ---------------------------------------------------------
  1 S  3.40613410E+01  0.006025
  1 S  5.12357460E+00  0.045021
  1 S  1.16466260E+00  0.201897

  2 S  3.27230410E-01  1.000000

  3 S  1.03072410E-01  1.000000

  O (Oxygen)
  ----------
            Exponent  Coefficients 
       -------------- ---------------------------------------------------------
  1 S  1.59026475E+04  0.000515
  1 S  2.38495378E+03  0.003982
  1 S  5.42719572E+02  0.020477
  1 S  1.53404079E+02  0.080262
  1 S  4.95457161E+01  0.237668

  2 S  1.73396499E+01  1.000000

  3 S  6.33033553E+00  1.000000

  4 S  1.69958822E+00  1.000000

  5 S  6.89544913E-01  1.000000

  6 S  2.39360282E-01  1.000000

  7 P  6.32705240E+01  0.006071
  7 P  1.46233123E+01  0.041948
  7 P  4.44895180E+00  0.161569
[...]
  ----- ------------  ---------------      ----- ------------  ---------------
   739      1.366358  83 C  s               743      1.181082  83 C  s         
   802     -1.090914  88 C  s               740     -1.064362  83 C  s         
   806     -0.857390  88 C  s               716      0.844737  78 C  s         
   803      0.845447  88 C  s               738     -0.801471  83 C  s         
   742     -0.804585  83 C  s               741      0.790006  83 C  s         

 Vector  847  Occ=0.000000D+00  E= 6.331038D+01
              MO Center=  1.2D+00,  7.9D-01,  6.1D-01, r^2= 1.1D+01
   Bfn.  Coefficient  Atom+Function         Bfn.  Coefficient  Atom+Function  
  ----- ------------  ---------------      ----- ------------  ---------------
   701      1.517830  77 C  s               697      1.414763  77 C  s         
     6     -1.296843   1 C  s               296     -1.198309  22 C  s         
   326      1.161985  24 C  s               698     -1.103668  77 C  s         
   292     -1.093464  22 C  s               322      1.053148  24 C  s         
   172     -0.951700  10 C  py                2     -0.943744   1 C  s         

 Vector  848  Occ=0.000000D+00  E= 6.331807D+01
              MO Center=  2.3D+00,  3.2D-01,  2.3D-01, r^2= 8.4D+00
   Bfn.  Coefficient  Atom+Function         Bfn.  Coefficient  Atom+Function  
  ----- ------------  ---------------      ----- ------------  ---------------
   712      1.758183  78 C  s               716      1.684780  78 C  s         
   713     -1.371440  78 C  s               682     -1.285962  76 C  s         
   686     -1.220839  76 C  s               715     -1.059591  78 C  s         
   711     -1.030909  78 C  s               714      1.024871  78 C  s         
   683      0.999596  76 C  s               649      0.834289  73 C  s         

 Vector  849  Occ=0.000000D+00  E= 6.332831D+01
              MO Center= -3.2D-01,  8.1D-01, -6.9D-01, r^2= 1.1D+01
   Bfn.  Coefficient  Atom+Function         Bfn.  Coefficient  Atom+Function  
  ----- ------------  ---------------      ----- ------------  ---------------
     6      1.893879   1 C  s                 2      1.507235   1 C  s         
   701     -1.315425  77 C  s               352      1.195013  26 C  s         
     3     -1.182898   1 C  s               266     -1.163930  20 C  s         
   356      1.168350  26 C  s                 5     -1.053946   1 C  s         
   262     -1.050757  20 C  s               236     -1.018957  18 C  s         

 Vector  850  Occ=0.000000D+00  E= 6.334676D+01
              MO Center=  2.5D+00, -3.0D+00, -9.4D-01, r^2= 3.6D+00
   Bfn.  Coefficient  Atom+Function         Bfn.  Coefficient  Atom+Function  
  ----- ------------  ---------------      ----- ------------  ---------------
   769      2.005886  85 C  s               773      1.938821  85 C  s         
   770     -1.563672  85 C  s               758     -1.454054  84 C  s         
   754     -1.439881  84 C  s               772     -1.206729  85 C  s         
   768     -1.176265  85 C  s               771      1.165291  85 C  s         
   755      1.122820  84 C  s               784      1.076997  86 C  s         

 Vector  851  Occ=0.000000D+00  E= 6.340667D+01
              MO Center= -1.5D+00, -1.1D+00,  6.8D-01, r^2= 1.0D+01
   Bfn.  Coefficient  Atom+Function         Bfn.  Coefficient  Atom+Function  
  ----- ------------  ---------------      ----- ------------  ---------------
   185      2.108827  13 C  s               200     -1.857749  14 C  s         
   143      1.833527   8 C  pz              181      1.540217  13 C  s         
   196     -1.522573  14 C  s               209      1.243969  14 C  pz        
   182     -1.212363  13 C  s               197      1.199760  14 C  s         
   194      1.172524  13 C  pz              221     -1.116159  17 C  s         

 Vector  852  Occ=0.000000D+00  E= 6.341778D+01
              MO Center= -1.5D+00, -4.2D-01,  4.2D-01, r^2= 1.2D+01
   Bfn.  Coefficient  Atom+Function         Bfn.  Coefficient  Atom+Function  
  ----- ------------  ---------------      ----- ------------  ---------------
   134      2.348562   8 C  s               130      1.452262   8 C  s         
   221      1.394277  17 C  s               209      1.350588  14 C  pz        
   173     -1.278658  10 C  pz              200     -1.245060  14 C  s         
   131     -1.145339   8 C  s               236     -1.106894  18 C  s         
   245     -1.099785  18 C  pz              217      1.060139  17 C  s         

 Vector  853  Occ=0.000000D+00  E= 6.342087D+01
              MO Center= -1.3D+00,  2.4D-01,  1.9D-01, r^2= 1.4D+01
   Bfn.  Coefficient  Atom+Function         Bfn.  Coefficient  Atom+Function  
  ----- ------------  ---------------      ----- ------------  ---------------
   134      1.977193   8 C  s               245      1.506554  18 C  pz        
   236      1.450093  18 C  s               173      1.396810  10 C  pz        
   130      1.247254   8 C  s               142     -1.197122   8 C  py        
   164     -1.163183  10 C  s               194     -1.144330  13 C  pz        
   232      1.080572  18 C  s               356      1.008533  26 C  s         

 Vector  854  Occ=0.000000D+00  E= 6.344128D+01
              MO Center= -4.5D-01,  2.8D+00, -1.6D-01, r^2= 6.8D+00
   Bfn.  Coefficient  Atom+Function         Bfn.  Coefficient  Atom+Function  
  ----- ------------  ---------------      ----- ------------  ---------------
   164      2.862004  10 C  s               160      1.793632  10 C  s         
   161     -1.416269  10 C  s               163     -1.271832  10 C  s         
   221     -1.228974  17 C  s               311     -1.227204  23 C  s         
   230      1.217689  17 C  pz              341     -1.206543  25 C  s         
   172      1.163163  10 C  py              337     -1.124067  25 C  s         

 Vector  855  Occ=0.000000D+00  E= 6.356266D+01
              MO Center=  3.3D+00,  6.3D-02,  9.4D-02, r^2= 6.6D+00
   Bfn.  Coefficient  Atom+Function         Bfn.  Coefficient  Atom+Function  
  ----- ------------  ---------------      ----- ------------  ---------------
   716     -2.448302  78 C  s               701      2.350988  77 C  s         
   671      2.088186  75 C  s               653      2.045587  73 C  s         
   638     -2.024620  72 C  s               686     -1.976847  76 C  s         
   743      1.375794  83 C  s               724     -1.351632  78 C  py        
   773     -1.270990  85 C  s               806      1.213523  88 C  s         

 Vector  856  Occ=0.000000D+00  E= 6.356647D+01
              MO Center=  2.6D+00, -2.4D+00, -5.8D-01, r^2= 7.4D+00
   Bfn.  Coefficient  Atom+Function         Bfn.  Coefficient  Atom+Function  
  ----- ------------  ---------------      ----- ------------  ---------------
   743      2.221497  83 C  s               773     -2.102109  85 C  s         
   806      1.993121  88 C  s               824     -1.946067  90 C  s         
   788      1.921456  86 C  s               758     -1.841165  84 C  s         
   701     -1.363783  77 C  s               716      1.224325  78 C  s         
   671     -1.154668  75 C  s               769     -1.138150  85 C  s         

 Vector  857  Occ=0.000000D+00  E= 6.359047D+01
              MO Center= -1.6D+00, -2.8D+00,  8.5D-01, r^2= 4.3D+00
   Bfn.  Coefficient  Atom+Function         Bfn.  Coefficient  Atom+Function  
  ----- ------------  ---------------      ----- ------------  ---------------
   134      3.448169   8 C  s               185     -2.933806  13 C  s         
   200     -2.937172  14 C  s               281      2.665353  21 C  s         
   251      2.571848  19 C  s               371     -2.436575  27 C  s         
   142     -2.225171   8 C  py              209      1.621381  14 C  pz        
   194     -1.560461  13 C  pz              130      1.359607   8 C  s         

 Vector  858  Occ=0.000000D+00  E= 6.360090D+01
              MO Center= -3.5D-01,  3.6D+00, -2.7D-01, r^2= 2.9D+00
   Bfn.  Coefficient  Atom+Function         Bfn.  Coefficient  Atom+Function  
  ----- ------------  ---------------      ----- ------------  ---------------
   164      3.648430  10 C  s               236     -3.148212  18 C  s         
   221     -2.967644  17 C  s               311      2.705408  23 C  s         
   341      2.689004  25 C  s               458     -2.523393  36 C  s         
   230      2.106256  17 C  pz              172      1.934964  10 C  py        
   350      1.526477  25 C  pz              245     -1.483333  18 C  pz        

 Vector  859  Occ=0.000000D+00  E= 8.881599D+01
              MO Center= -1.9D+00,  3.4D-01,  7.5D-01, r^2= 1.3D+00
   Bfn.  Coefficient  Atom+Function         Bfn.  Coefficient  Atom+Function  
  ----- ------------  ---------------      ----- ------------  ---------------
    85      2.384129   5 N  s               142     -2.055558   8 C  py        
    86     -1.857173   5 N  s               100     -1.781148   6 N  s         
    89      1.681839   5 N  s                84      1.400234   5 N  s         
   101      1.387322   6 N  s                87      1.313507   5 N  s         
   104     -1.292732   6 N  s                88     -1.267442   5 N  s         

 Vector  860  Occ=0.000000D+00  E= 8.886349D+01
              MO Center= -1.5D+00,  6.4D-01,  4.2D-01, r^2= 2.9D+00
   Bfn.  Coefficient  Atom+Function         Bfn.  Coefficient  Atom+Function  
  ----- ------------  ---------------      ----- ------------  ---------------
   100      2.222046   6 N  s                85      1.761972   5 N  s         
   101     -1.735829   6 N  s               104      1.614035   6 N  s         
    86     -1.376491   5 N  s                99      1.303685   6 N  s         
   172      1.282703  10 C  py              102      1.242542   6 N  s         
    89      1.232051   5 N  s               103     -1.206534   6 N  s         

 Vector  861  Occ=0.000000D+00  E= 8.887846D+01
              MO Center=  8.1D-01, -1.2D+00, -1.6D+00, r^2= 2.3D+00
   Bfn.  Coefficient  Atom+Function         Bfn.  Coefficient  Atom+Function  
  ----- ------------  ---------------      ----- ------------  ---------------
   619      2.818385  71 N  s               620     -2.191942  71 N  s         
   618      1.656312  71 N  s               623      1.660458  71 N  s         
   621      1.538372  71 N  s               622     -1.445225  71 N  s         
   100      0.909628   6 N  s               751     -0.854882  83 C  py        
   101     -0.711130   6 N  s               750      0.651200  83 C  px        

 Vector  862  Occ=0.000000D+00  E= 1.171398D+02
              MO Center=  1.3D-01, -4.5D-01, -7.6D-01, r^2= 3.7D-02
   Bfn.  Coefficient  Atom+Function         Bfn.  Coefficient  Atom+Function  
  ----- ------------  ---------------      ----- ------------  ---------------
    38      0.905746   3 Ni pz               36      0.454400   3 Ni px        
    41     -0.345455   3 Ni pz               37     -0.327149   3 Ni py        
    45     -0.326546   3 Ni px              725     -0.247491  78 C  pz        
   671      0.245519  75 C  s                82      0.232503   4 C  py        
   723     -0.231994  78 C  px               35     -0.199891   3 Ni s         

 Vector  863  Occ=0.000000D+00  E= 1.172273D+02
              MO Center=  1.3D-01, -4.5D-01, -7.6D-01, r^2= 3.5D-02
   Bfn.  Coefficient  Atom+Function         Bfn.  Coefficient  Atom+Function  
  ----- ------------  ---------------      ----- ------------  ---------------
    37      1.013972   3 Ni py               40     -0.393020   3 Ni py        
    74     -0.324870   4 C  s                38      0.285892   3 Ni pz        
     6     -0.261671   1 C  s               142      0.253097   8 C  py        
    43      0.219875   3 Ni py              709     -0.220969  77 C  py        
   172     -0.217733  10 C  py              686      0.201735  76 C  s         

 Vector  864  Occ=0.000000D+00  E= 1.172688D+02
              MO Center=  1.3D-01, -4.5D-01, -7.6D-01, r^2= 3.5D-02
   Bfn.  Coefficient  Atom+Function         Bfn.  Coefficient  Atom+Function  
  ----- ------------  ---------------      ----- ------------  ---------------
    36      0.950718   3 Ni px               38     -0.482306   3 Ni pz        
    35     -0.429983   3 Ni s                39     -0.371275   3 Ni px        
   709     -0.289652  77 C  py              686      0.282082  76 C  s         
   142      0.271626   8 C  py               81      0.252910   4 C  px        
   200      0.251310  14 C  s               134     -0.233587   8 C  s         

 Vector  865  Occ=0.000000D+00  E= 1.186762D+02
              MO Center=  1.3D+00,  1.4D+00, -2.2D+00, r^2= 5.8D-02
   Bfn.  Coefficient  Atom+Function         Bfn.  Coefficient  Atom+Function  
  ----- ------------  ---------------      ----- ------------  ---------------
    17      2.979201   2 O  s                18     -2.300013   2 O  s         
    16     -1.757299   2 O  s                19      1.514054   2 O  s         
    20     -1.251128   2 O  s                21      1.040771   2 O  s         
     6     -0.648514   1 C  s                14     -0.470607   1 C  py        
    34     -0.452357   3 Ni s                15      0.423285   1 C  pz        

 Vector  866  Occ=0.000000D+00  E= 6.702817D+02
              MO Center=  1.3D-01, -4.5D-01, -7.6D-01, r^2= 2.5D-02
   Bfn.  Coefficient  Atom+Function         Bfn.  Coefficient  Atom+Function  
  ----- ------------  ---------------      ----- ------------  ---------------
    32     28.692866   3 Ni s                33    -15.133952   3 Ni s         
    51     -7.282254   3 Ni dxx              54     -7.282366   3 Ni dyy       
    56     -7.283266   3 Ni dzz              31     -4.262076   3 Ni s         
    57      3.303918   3 Ni dxx              60      3.304381   3 Ni dyy       
    62      3.307510   3 Ni dzz              34      0.843110   3 Ni s         


 center of mass
 --------------
 x =   0.05936771 y =  -0.01751379 z =  -0.03393595

 moments of inertia (a.u.)
 ------------------
       24762.112780928102          -0.000000000002           0.000000000000
          -0.000000000002       21101.832174853025          -0.000000000001
           0.000000000000          -0.000000000001       29552.454004796607

     Multipole analysis of the density
     ---------------------------------

     L   x y z        total         alpha         beta         nuclear
     -   - - -        -----         -----         ----         -------
     0   0 0 0      0.000000   -172.000000   -172.000000    344.000000

     1   1 0 0     -1.962401      0.208671      0.208671     -2.379744
     1   0 1 0      0.641968     -3.910776     -3.910776      8.463520
     1   0 0 1      1.862107     -6.268279     -6.268279     14.398665

     2   2 0 0   -206.874160  -3708.288468  -3708.288468   7209.702775
     2   1 1 0      5.266875      0.389822      0.389822      4.487231
     2   1 0 1      3.654512    -47.467907    -47.467907     98.590326
     2   0 2 0   -210.240976  -4679.678257  -4679.678257   9149.115539
     2   0 1 1     -1.616016      2.525052      2.525052     -6.666120
     2   0 0 2   -212.020964  -2472.649032  -2472.649032   4733.277100


 Task  times  cpu:     2260.1s     wall:     2260.1s


                                NWChem Input Module
                                -------------------


 Summary of allocated global arrays
-----------------------------------
  No active global arrays


MA_summarize_allocated_blocks: starting scan ...
heap block 'gridpts', handle 91, address 0x604f4e0b9060:
	type of elements:		double precision
	number of elements:		203677165
	address of client space:	0x604f4e0b90c0
	index for client space:		52900595
	total number of bytes:		1629417424
MA_summarize_allocated_blocks: scan completed: 1 heap block, 0 stack blocks
MA usage statistics:

	allocation statistics:
					      heap	     stack
					      ----	     -----
	current number of blocks	         1	         0
	maximum number of blocks	        37	        58
	current total bytes		1629417424	         0
	maximum total bytes		1649038168	  59600376
	maximum total K-bytes		   1649039	     59601
	maximum total M-bytes		      1650	        60


                                     CITATION
                                     --------
                Please cite the following reference when publishing
                           results obtained with NWChem:

          E. Apra, E. J. Bylaska, W. A. de Jong, N. Govind, K. Kowalski,
       T. P. Straatsma, M. Valiev, H. J. J. van Dam, Y. Alexeev, J. Anchell,
       V. Anisimov, F. W. Aquino, R. Atta-Fynn, J. Autschbach, N. P. Bauman,
     J. C. Becca, D. E. Bernholdt, K. Bhaskaran-Nair, S. Bogatko, P. Borowski,
         J. Boschen, J. Brabec, A. Bruner, E. Cauet, Y. Chen, G. N. Chuev,
      C. J. Cramer, J. Daily, M. J. O. Deegan, T. H. Dunning Jr., M. Dupuis,
   K. G. Dyall, G. I. Fann, S. A. Fischer, A. Fonari, H. Fruchtl, L. Gagliardi,
      J. Garza, N. Gawande, S. Ghosh, K. Glaesemann, A. W. Gotz, J. Hammond,
       V. Helms, E. D. Hermes, K. Hirao, S. Hirata, M. Jacquelin, L. Jensen,
   B. G. Johnson, H. Jonsson, R. A. Kendall, M. Klemm, R. Kobayashi, V. Konkov,
      S. Krishnamoorthy, M. Krishnan, Z. Lin, R. D. Lins, R. J. Littlefield,
      A. J. Logsdail, K. Lopata, W. Ma, A. V. Marenich, J. Martin del Campo,
   D. Mejia-Rodriguez, J. E. Moore, J. M. Mullin, T. Nakajima, D. R. Nascimento,
    J. A. Nichols, P. J. Nichols, J. Nieplocha, A. Otero-de-la-Roza, B. Palmer,
    A. Panyala, T. Pirojsirikul, B. Peng, R. Peverati, J. Pittner, L. Pollack,
   R. M. Richard, P. Sadayappan, G. C. Schatz, W. A. Shelton, D. W. Silverstein,
   D. M. A. Smith, T. A. Soares, D. Song, M. Swart, H. L. Taylor, G. S. Thomas,
            V. Tipparaju, D. G. Truhlar, K. Tsemekhman, T. Van Voorhis,
      A. Vazquez-Mayagoitia, P. Verma, O. Villa, A. Vishnu, K. D. Vogiatzis,
        D. Wang, J. H. Weare, M. J. Williamson, T. L. Windus, K. Wolinski,
        A. T. Wong, Q. Wu, C. Yang, Q. Yu, M. Zacharias, Z. Zhang, Y. Zhao,
                                and R. J. Harrison
                        "NWChem: Past, present, and future
                         J. Chem. Phys. 152, 184102 (2020)
                               doi:10.1063/5.0004997

                                      AUTHORS
                                      -------
  E. Apra, E. J. Bylaska, N. Govind, K. Kowalski, M. Valiev, D. Mejia-Rodriguez,
       A. Kunitsa, N. P. Bauman, A. Panyala, W. A. de Jong, T. P. Straatsma,
   H. J. J. van Dam, D. Wang, T. L. Windus, J. Hammond, J. Autschbach, A. Woods,
    K. Bhaskaran-Nair, J. Brabec, K. Lopata, S. A. Fischer, S. Krishnamoorthy,
     M. Jacquelin, W. Ma, M. Klemm, O. Villa, Y. Chen, V. Anisimov, F. Aquino,
     S. Hirata, M. T. Hackler, E. Hermes, L. Jensen, J. E. Moore, J. C. Becca,
      V. Konjkov, T. Risthaus, M. Malagoli, A. Marenich, A. Otero-de-la-Roza,
        J. Mullin, P. Nichols, R. Peverati, J. Pittner, Y. Zhao, P.-D. Fan,
        A. Fonari, M. J. Williamson, R. J. Harrison, J. R. Rehr, M. Dupuis,
     D. Silverstein, D. M. A. Smith, J. Nieplocha, V. Tipparaju, M. Krishnan,
     B. E. Van Kuiken, A. Vazquez-Mayagoitia, M. Swart, Q. Wu, T. Van Voorhis,
     A. A. Auer, M. Nooijen, L. D. Crosby, E. Brown, G. Cisneros, G. I. Fann,
   H. Fruchtl, J. Garza, K. Hirao, R. A. Kendall, J. A. Nichols, K. Tsemekhman,
    K. Wolinski, J. Anchell, D. E. Bernholdt, P. Borowski, T. Clark, D. Clerc,
   H. Dachsel, M. J. O. Deegan, K. Dyall, D. Elwood, E. Glendening, M. Gutowski,
   A. C. Hess, J. Jaffe, B. G. Johnson, J. Ju, R. Kobayashi, R. Kutteh, Z. Lin,
   R. Littlefield, X. Long, B. Meng, T. Nakajima, S. Niu, L. Pollack, M. Rosing,
   K. Glaesemann, G. Sandrone, M. Stave, H. Taylor, G. Thomas, J. H. van Lenthe,
                               A. T. Wong, Z. Zhang.

 Total times  cpu:     2260.6s     wall:     2260.6s
