 argument  1 = nwchem.in
  NWChem w/ OpenMP: maximum threads =    1
                                         
                                         


             Northwest Computational Chemistry Package (NWChem) 7.2.3
             --------------------------------------------------------


                    Environmental Molecular Sciences Laboratory
                       Pacific Northwest National Laboratory
                                Richland, WA 99352

                              Copyright (c) 1994-2022
                       Pacific Northwest National Laboratory
                            Battelle Memorial Institute

             NWChem is an open-source computational chemistry package
                        distributed under the terms of the
                      Educational Community License (ECL) 2.0
             A copy of the license is included with this distribution
                              in the LICENSE.TXT file

                                  ACKNOWLEDGMENT
                                  --------------

            This software and its documentation were developed at the
            EMSL at Pacific Northwest National Laboratory, a multiprogram
            national laboratory, operated for the U.S. Department of Energy
            by Battelle under Contract Number DE-AC05-76RL01830. Support
            for this work was provided by the Department of Energy Office
            of Biological and Environmental Research, Office of Basic
            Energy Sciences, and the Office of Advanced Scientific Computing.


           Job information
           ---------------

    hostname        = 1122388c519f
    program         = nwchem
    date            = Thu Jul  3 11:05:11 2025

    compiled        = Fri_May_02_22:05:35_2025
    source          = /opt/nwchem
    nwchem branch   = 7.2.3
    nwchem revision = N/A
    ga revision     = 5.9.1
    use scalapack   = T
    input           = nwchem.in
    prefix          = ni_singlepoint.
    data base       = ./ni_singlepoint.db
    status          = startup
    nproc           =        5
    time left       =     -1s



           Memory information
           ------------------

    heap     =    509724440 doubles =     3888.9 Mbytes
    stack    =    509724441 doubles =     3888.9 Mbytes
    global   =    291271111 doubles =     2222.2 Mbytes (distinct from heap & stack)
    total    =   1310719992 doubles =    10000.0 Mbytes
    verify   = yes
    hardfail = no 


           Directory information
           ---------------------

  0 permanent = .
  0 scratch   = .




                                NWChem Input Module
                                -------------------


                          Ni complex single-point energy
                          ------------------------------

 Scaling coordinates for geometry "geometry" by  1.889725989
 (inverse scale =  0.529177249)

 C1  symmetry detected

          ------
          auto-z
          ------
  no constraints, skipping    0.0000000000000000     
  no constraints, skipping    0.0000000000000000     


                             Geometry "geometry" -> ""
                             -------------------------

 Output coordinates in angstroms (scale by  1.889725989 to convert to a.u.)

  No.       Tag          Charge          X              Y              Z
 ---- ---------------- ---------- -------------- -------------- --------------
    1 C                    6.0000     1.41322387     0.84195862    -1.13631276
    2 O                    8.0000     1.32050982     1.61820235    -2.05709612
    3 Ni                  28.0000     0.08874774    -0.39535399    -0.84444539
    4 C                    6.0000    -1.08775162     0.52216335     0.32551677
    5 N                    7.0000    -1.96450454    -0.23323988     1.00798538
    6 N                    7.0000    -1.40649309     1.79836301     0.54573424
    7 C                    6.0000    -2.95849928     0.53312218     1.76031689
    8 C                    6.0000    -1.91224531    -1.66104690     1.04128687
    9 C                    6.0000    -2.62045477     1.96998149     1.35268567
   10 C                    6.0000    -0.71168680     2.93831631     0.03216271
   11 H                    1.0000    -3.96760936     0.23641532     1.47014411
   12 H                    1.0000    -2.84680836     0.36237241     2.83289622
   13 C                    6.0000    -2.49957157    -2.38560657    -0.00251817
   14 C                    6.0000    -1.28123468    -2.28879874     2.12317377
   15 H                    1.0000    -3.40509987     2.43075067     0.74880513
   16 H                    1.0000    -2.42272798     2.61821218     2.20606250
   17 C                    6.0000     0.20754426     3.58210153     0.86610323
   18 C                    6.0000    -0.98895510     3.38073634    -1.26321623
   19 C                    6.0000    -2.42025075    -3.77403362     0.04723261
   20 C                    6.0000    -3.24985426    -1.70643835    -1.13290980
   21 C                    6.0000    -1.25147238    -3.67757789     2.14275573
   22 C                    6.0000    -0.63463729    -1.49766196     3.24391212
   23 C                    6.0000     0.88265433     4.68491649     0.35596831
   24 C                    6.0000     0.43608692     3.14663145     2.30235478
   25 C                    6.0000    -0.29602795     4.49127514    -1.72784421
   26 C                    6.0000    -2.01967109     2.69815491    -2.14131062
   27 C                    6.0000    -1.80683742    -4.41420192     1.10901260
   28 H                    1.0000    -2.84422833    -4.36131200    -0.75713361
   29 C                    6.0000    -4.75786216    -1.90688877    -0.95096433
   30 C                    6.0000    -2.79381672    -2.18939764    -2.50991298
   31 H                    1.0000    -3.04502492    -0.63500503    -1.07739815
   32 H                    1.0000    -0.76514397    -4.19072058     2.96331008
   33 C                    6.0000     0.81182982    -1.93334162     3.48578628
   34 C                    6.0000    -1.45068273    -1.61432571     4.53447902
   35 H                    1.0000    -0.61029867    -0.44758550     2.94318313
   36 C                    6.0000     0.63643508     5.13277560    -0.93080264
   37 H                    1.0000     1.60916771     5.19956852     0.97270351
   38 C                    6.0000    -0.16321399     4.17488124     3.26830443
   39 C                    6.0000     1.91217836     2.91562049     2.62414689
   40 H                    1.0000    -0.07987409     2.19475507     2.45184833
   41 H                    1.0000    -0.47387057     4.84887366    -2.73391477
   42 C                    6.0000    -1.50361465     2.44002053    -3.55710093
   43 C                    6.0000    -3.31299378     3.51866477    -2.18178549
   44 H                    1.0000    -2.24534627     1.72599085    -1.69761785
   45 H                    1.0000    -1.74919882    -5.49494366     1.12581850
   46 H                    1.0000    -5.09882592    -1.54095186     0.01983534
   47 H                    1.0000    -5.01353469    -2.96690536    -1.01219568
   48 H                    1.0000    -5.31132860    -1.38054003    -1.73060278
   49 H                    1.0000    -1.71332579    -2.08599924    -2.62311710
   50 H                    1.0000    -3.28630331    -1.60607082    -3.29033735
   51 H                    1.0000    -3.05487873    -3.23737795    -2.67036183
   52 H                    1.0000     1.38935391    -1.92551369     2.56154987
   53 H                    1.0000     0.85761209    -2.94179780     3.90141755
   54 H                    1.0000     1.29384635    -1.26044413     4.19733447
   55 H                    1.0000    -2.48571145    -1.29893812     4.39119509
   56 H                    1.0000    -1.01052708    -1.00325055     5.32463227
   57 H                    1.0000    -1.46974127    -2.64978411     4.88105783
   58 H                    1.0000     1.17603802     5.98888811    -1.31562990
   59 H                    1.0000    -1.21869355     4.36290723     3.06232101
   60 H                    1.0000     0.36005141     5.12931257     3.18031249
   61 H                    1.0000    -0.06802510     3.83375996     4.30108443
   62 H                    1.0000     2.35430181     2.17471648     1.96043472
   63 H                    1.0000     2.01883513     2.56377926     3.65249509
   64 H                    1.0000     2.48692255     3.83923344     2.53163263
   65 H                    1.0000    -0.54013766     1.93390943    -3.52737022
   66 H                    1.0000    -1.38549046     3.37280975    -4.11281240
   67 H                    1.0000    -2.21793231     1.82308788    -4.10631028
   68 H                    1.0000    -3.71897666     3.69187237    -1.18316962
   69 H                    1.0000    -4.07250816     3.00908548    -2.77814958
   70 H                    1.0000    -3.12835708     4.49563005    -2.63413998
   71 N                    7.0000     0.79682144    -1.58426777    -2.05447215
   72 C                    6.0000     4.95510045     0.79104744     1.26224960
   73 C                    6.0000     4.77076458     1.78554149     0.30732450
   74 H                    1.0000     4.15097095    -0.98636961     2.16020661
   75 C                    6.0000     4.00048656    -0.20327346     1.42758313
   76 C                    6.0000     3.62672955     1.79193851    -0.47329802
   77 C                    6.0000     2.66112559     0.80427851    -0.29860278
   78 C                    6.0000     2.85517061    -0.19470038     0.64464846
   79 H                    1.0000     3.45562004     2.55331627    -1.22374779
   80 H                    1.0000     2.10857279    -0.97310406     0.74568212
   81 H                    1.0000     5.84935476     0.78874001     1.87289400
   82 H                    1.0000     5.52324459     2.55267033     0.17382443
   83 C                    6.0000     1.54300662    -2.67587324    -1.65317615
   84 C                    6.0000     2.55308484    -3.26439670    -2.43241525
   85 C                    6.0000     1.27252120    -3.27202811    -0.40612017
   86 C                    6.0000     3.24342119    -4.38143462    -1.97977451
   87 H                    1.0000     2.81001727    -2.84704177    -3.39533122
   88 C                    6.0000     1.96500406    -4.38107864     0.03515753
   89 H                    1.0000     0.47375750    -2.85773873     0.20026834
   90 C                    6.0000     2.96274472    -4.95393814    -0.74971435
   91 H                    1.0000     4.01800405    -4.80700591    -2.60699153
   92 H                    1.0000     1.71209396    -4.81631813     0.99596890
   93 H                    1.0000     3.50053335    -5.82970470    -0.41138173
   94 C                    6.0000     1.00083436    -1.14553186    -3.42237930
   95 H                    1.0000     2.01975235    -0.78289984    -3.61407644
   96 H                    1.0000     0.79689488    -1.95797174    -4.13042809
   97 H                    1.0000     0.32312562    -0.32236628    -3.64221241

      Atomic Mass 
      ----------- 

      C                 12.000000
      O                 15.994910
      Ni                57.935300
      N                 14.003070
      H                  1.007825


 Effective nuclear repulsion energy (a.u.)    7261.6777508549

            Nuclear Dipole moment (a.u.) 
            ----------------------------
        X                 Y               Z
 ---------------- ---------------- ----------------
     0.0000000000     0.0000000000    -0.0000000000



                                Z-matrix (autoz)
                                -------- 

 Units are Angstrom for bonds and degrees for angles

      Type          Name      I     J     K     L     M      Value
      ----------- --------  ----- ----- ----- ----- ----- ----------
    1 Stretch                  1     2                       1.20789
    2 Stretch                  1     3                       1.83586
    3 Stretch                  1    77                       1.50347
    4 Stretch                  3     4                       1.89600
    5 Stretch                  3    71                       1.83822
    6 Stretch                  4     5                       1.34354
    7 Stretch                  4     6                       1.33371
    8 Stretch                  5     7                       1.46333
    9 Stretch                  5     8                       1.42915
   10 Stretch                  6     9                       1.46776
   11 Stretch                  6    10                       1.43039
   12 Stretch                  7     9                       1.53134
   13 Stretch                  7    11                       1.09112
   14 Stretch                  7    12                       1.09181
   15 Stretch                  8    13                       1.39981
   16 Stretch                  8    14                       1.40097
   17 Stretch                  9    15                       1.09208
   18 Stretch                  9    16                       1.08975
   19 Stretch                 10    17                       1.39818
   20 Stretch                 10    18                       1.39665
   21 Stretch                 13    19                       1.39158
   22 Stretch                 13    20                       1.51723
   23 Stretch                 14    21                       1.38924
   24 Stretch                 14    22                       1.51659
   25 Stretch                 17    23                       1.39004
   26 Stretch                 17    24                       1.51812
   27 Stretch                 18    25                       1.38900
   28 Stretch                 18    26                       1.51636
   29 Stretch                 19    27                       1.38328
   30 Stretch                 19    28                       1.08243
   31 Stretch                 20    29                       1.53211
   32 Stretch                 20    30                       1.52884
   33 Stretch                 20    31                       1.09225
   34 Stretch                 21    27                       1.38552
   35 Stretch                 21    32                       1.08312
   36 Stretch                 22    33                       1.52990
   37 Stretch                 22    34                       1.53137
   38 Stretch                 22    35                       1.09256
   39 Stretch                 23    36                       1.38455
   40 Stretch                 23    37                       1.08307
   41 Stretch                 24    38                       1.53281
   42 Stretch                 24    39                       1.52832
   43 Stretch                 24    40                       1.09299
   44 Stretch                 25    36                       1.38430
   45 Stretch                 25    41                       1.08244
   46 Stretch                 26    42                       1.52886
   47 Stretch                 26    43                       1.53217
   48 Stretch                 26    44                       1.09220
   49 Stretch                 27    45                       1.08241
   50 Stretch                 29    46                       1.09207
   51 Stretch                 29    47                       1.09213
   52 Stretch                 29    48                       1.09142
   53 Stretch                 30    49                       1.09131
   54 Stretch                 30    50                       1.09173
   55 Stretch                 30    51                       1.09186
   56 Stretch                 33    52                       1.08987
   57 Stretch                 33    53                       1.09171
   58 Stretch                 33    54                       1.09153
   59 Stretch                 34    55                       1.09146
   60 Stretch                 34    56                       1.09155
   61 Stretch                 34    57                       1.09209
   62 Stretch                 36    58                       1.08268
   63 Stretch                 38    59                       1.09171
   64 Stretch                 38    60                       1.09201
   65 Stretch                 38    61                       1.09181
   66 Stretch                 39    62                       1.08854
   67 Stretch                 39    63                       1.09209
   68 Stretch                 39    64                       1.09176
   69 Stretch                 42    65                       1.08872
   70 Stretch                 42    66                       1.09218
   71 Stretch                 42    67                       1.09201
   72 Stretch                 43    68                       1.09181
   73 Stretch                 43    69                       1.09187
   74 Stretch                 43    70                       1.09233
   75 Stretch                 71    83                       1.38182
   76 Stretch                 71    94                       1.45096
   77 Stretch                 72    73                       1.39100
   78 Stretch                 72    75                       1.38827
   79 Stretch                 72    81                       1.08286
   80 Stretch                 73    76                       1.38500
   81 Stretch                 73    82                       1.08284
   82 Stretch                 74    75                       1.08288
   83 Stretch                 75    78                       1.38737
   84 Stretch                 76    77                       1.39226
   85 Stretch                 76    79                       1.08266
   86 Stretch                 77    78                       1.38756
   87 Stretch                 78    80                       1.08330
   88 Stretch                 83    84                       1.40493
   89 Stretch                 83    85                       1.40844
   90 Stretch                 84    86                       1.38896
   91 Stretch                 84    87                       1.08047
   92 Stretch                 85    88                       1.37995
   93 Stretch                 85    89                       1.08507
   94 Stretch                 86    90                       1.38549
   95 Stretch                 86    91                       1.08374
   96 Stretch                 88    90                       1.39272
   97 Stretch                 88    92                       1.08469
   98 Stretch                 90    93                       1.08197
   99 Stretch                 94    95                       1.09838
  100 Stretch                 94    96                       1.09681
  101 Stretch                 94    97                       1.08868
  102 Bend                     1     3     4               102.68698
  103 Bend                     1     3    71                93.05858
  104 Bend                     1    77    76               119.20690
  105 Bend                     1    77    78               120.85610
  106 Bend                     2     1     3               119.92996
  107 Bend                     2     1    77               120.30219
  108 Bend                     3     1    77               119.56023
  109 Bend                     3     4     5               116.50623
  110 Bend                     3     4     6               135.49937
  111 Bend                     3    71    83               121.85532
  112 Bend                     3    71    94               118.63143
  113 Bend                     4     3    71               163.37606
  114 Bend                     4     5     7               114.20296
  115 Bend                     4     5     8               123.34607
  116 Bend                     4     6     9               113.59854
  117 Bend                     4     6    10               125.95986
  118 Bend                     5     4     6               107.34804
  119 Bend                     5     7     9               101.80574
  120 Bend                     5     7    11               110.43084
  121 Bend                     5     7    12               110.71217
  122 Bend                     5     8    13               118.97371
  123 Bend                     5     8    14               118.82432
  124 Bend                     6     9     7               102.66301
  125 Bend                     6     9    15               109.85067
  126 Bend                     6     9    16               110.48836
  127 Bend                     6    10    17               118.17444
  128 Bend                     6    10    18               119.27697
  129 Bend                     7     5     8               122.41696
  130 Bend                     7     9    15               112.61110
  131 Bend                     7     9    16               112.93852
  132 Bend                     8    13    19               117.76622
  133 Bend                     8    13    20               122.09590
  134 Bend                     8    14    21               117.93501
  135 Bend                     8    14    22               121.93532
  136 Bend                     9     6    10               120.39548
  137 Bend                     9     7    11               112.86241
  138 Bend                     9     7    12               112.68488
  139 Bend                    10    17    23               117.75676
  140 Bend                    10    17    24               122.08521
  141 Bend                    10    18    25               117.67666
  142 Bend                    10    18    26               121.96781
  143 Bend                    11     7    12               108.26053
  144 Bend                    13     8    14               122.20079
  145 Bend                    13    19    27               120.96134
  146 Bend                    13    19    28               119.50053
  147 Bend                    13    20    29               109.85777
  148 Bend                    13    20    30               112.46558
  149 Bend                    13    20    31               107.96925
  150 Bend                    14    21    27               120.82245
  151 Bend                    14    21    32               119.59772
  152 Bend                    14    22    33               111.80054
  153 Bend                    14    22    34               110.84528
  154 Bend                    14    22    35               107.90630
  155 Bend                    15     9    16               108.20454
  156 Bend                    17    10    18               122.53835
  157 Bend                    17    23    36               120.75285
  158 Bend                    17    23    37               119.59064
  159 Bend                    17    24    38               110.17645
  160 Bend                    17    24    39               112.82733
  161 Bend                    17    24    40               107.94756
  162 Bend                    18    25    36               120.92704
  163 Bend                    18    25    41               119.54282
  164 Bend                    18    26    42               112.50838
  165 Bend                    18    26    43               110.36522
  166 Bend                    18    26    44               107.81100
  167 Bend                    19    13    20               120.09576
  168 Bend                    19    27    21               120.29141
  169 Bend                    19    27    45               119.84191
  170 Bend                    20    29    46               111.65596
  171 Bend                    20    29    47               110.53307
  172 Bend                    20    29    48               110.56081
  173 Bend                    20    30    49               111.02839
  174 Bend                    20    30    50               109.90765
  175 Bend                    20    30    51               111.36070
  176 Bend                    21    14    22               120.12802
  177 Bend                    21    27    45               119.86188
  178 Bend                    22    33    52               111.40076
  179 Bend                    22    33    53               111.27840
  180 Bend                    22    33    54               110.18305
  181 Bend                    22    34    55               111.88134
  182 Bend                    22    34    56               110.64166
  183 Bend                    22    34    57               110.42511
  184 Bend                    23    17    24               120.11012
  185 Bend                    23    36    25               120.33131
  186 Bend                    23    36    58               119.83376
  187 Bend                    24    38    59               112.00216
  188 Bend                    24    38    60               110.37617
  189 Bend                    24    38    61               110.63602
  190 Bend                    24    39    62               111.51730
  191 Bend                    24    39    63               109.95521
  192 Bend                    24    39    64               111.26798
  193 Bend                    25    18    26               120.35072
  194 Bend                    25    36    58               119.83493
  195 Bend                    26    42    65               110.60435
  196 Bend                    26    42    66               111.31436
  197 Bend                    26    42    67               109.89689
  198 Bend                    26    43    68               112.00393
  199 Bend                    26    43    69               110.58943
  200 Bend                    26    43    70               110.31754
  201 Bend                    27    19    28               119.53812
  202 Bend                    27    21    32               119.56005
  203 Bend                    29    20    30               111.05272
  204 Bend                    29    20    31               107.87151
  205 Bend                    30    20    31               107.44056
  206 Bend                    33    22    34               110.41957
  207 Bend                    33    22    35               107.22700
  208 Bend                    34    22    35               108.48518
  209 Bend                    36    23    37               119.65651
  210 Bend                    36    25    41               119.51987
  211 Bend                    38    24    39               110.26305
  212 Bend                    38    24    40               108.26755
  213 Bend                    39    24    40               107.18717
  214 Bend                    42    26    43               110.54106
  215 Bend                    42    26    44               107.19677
  216 Bend                    43    26    44               108.23911
  217 Bend                    46    29    47               107.57658
  218 Bend                    46    29    48               108.36580
  219 Bend                    47    29    48               108.01781
  220 Bend                    49    30    50               108.77515
  221 Bend                    49    30    51               108.20528
  222 Bend                    50    30    51               107.45367
  223 Bend                    52    33    53               107.89480
  224 Bend                    52    33    54               108.32353
  225 Bend                    53    33    54               107.62346
  226 Bend                    55    34    56               108.40020
  227 Bend                    55    34    57               107.40284
  228 Bend                    56    34    57               107.94495
  229 Bend                    59    38    60               107.30989
  230 Bend                    59    38    61               108.45627
  231 Bend                    60    38    61               107.90964
  232 Bend                    62    39    63               108.37210
  233 Bend                    62    39    64               108.07868
  234 Bend                    63    39    64               107.51347
  235 Bend                    65    42    66               108.37323
  236 Bend                    65    42    67               109.26797
  237 Bend                    66    42    67               107.29863
  238 Bend                    68    43    69               108.35747
  239 Bend                    68    43    70               107.44174
  240 Bend                    69    43    70               107.98733
  241 Bend                    71    83    84               123.92305
  242 Bend                    71    83    85               119.19632
  243 Bend                    71    94    95               113.25352
  244 Bend                    71    94    96               111.00688
  245 Bend                    71    94    97               109.35818
  246 Bend                    72    73    76               119.97996
  247 Bend                    72    73    82               119.93703
  248 Bend                    72    75    74               120.19640
  249 Bend                    72    75    78               119.73718
  250 Bend                    73    72    75               120.17884
  251 Bend                    73    72    81               119.87400
  252 Bend                    73    76    77               119.92647
  253 Bend                    73    76    79               121.63301
  254 Bend                    74    75    78               120.06537
  255 Bend                    75    72    81               119.94556
  256 Bend                    75    78    77               120.23312
  257 Bend                    75    78    80               120.78875
  258 Bend                    76    73    82               120.08288
  259 Bend                    76    77    78               119.93627
  260 Bend                    77    76    79               118.44024
  261 Bend                    77    78    80               118.96940
  262 Bend                    83    71    94               115.89548
  263 Bend                    83    84    86               120.89512
  264 Bend                    83    84    87               120.22910
  265 Bend                    83    85    88               121.79927
  266 Bend                    83    85    89               118.33183
  267 Bend                    84    83    85               116.86276
  268 Bend                    84    86    90               121.39624
  269 Bend                    84    86    91               118.84458
  270 Bend                    85    88    90               120.65487
  271 Bend                    85    88    92               119.25769
  272 Bend                    86    84    87               118.87431
  273 Bend                    86    90    88               118.39157
  274 Bend                    86    90    93               120.75654
  275 Bend                    88    85    89               119.83870
  276 Bend                    88    90    93               120.85001
  277 Bend                    90    86    91               119.75905
  278 Bend                    90    88    92               120.07816
  279 Bend                    95    94    96               107.72052
  280 Bend                    95    94    97               107.01347
  281 Bend                    96    94    97               108.29901
  282 Torsion                  1     3     4     5        -162.46631
  283 Torsion                  1     3     4     6          28.15609
  284 Torsion                  1     3    71    83         100.93169
  285 Torsion                  1     3    71    94         -56.74069
  286 Torsion                  1    77    76    73         178.82586
  287 Torsion                  1    77    76    79          -0.98605
  288 Torsion                  1    77    78    75        -178.82956
  289 Torsion                  1    77    78    80           2.23674
  290 Torsion                  2     1     3     4         -90.14892
  291 Torsion                  2     1     3    71          84.48264
  292 Torsion                  2     1    77    76           8.91097
  293 Torsion                  2     1    77    78        -171.39859
  294 Torsion                  3     1    77    76        -176.32787
  295 Torsion                  3     1    77    78           3.36257
  296 Torsion                  3     4     5     7        -172.48625
  297 Torsion                  3     4     5     8           9.59168
  298 Torsion                  3     4     6     9         166.11326
  299 Torsion                  3     4     6    10         -11.40781
  300 Torsion                  3    71    83    84        -151.33573
  301 Torsion                  3    71    83    85          30.25189
  302 Torsion                  3    71    94    95          94.94413
  303 Torsion                  3    71    94    96        -143.73170
  304 Torsion                  3    71    94    97         -24.29929
  305 Torsion                  4     3     1    77          95.07016
  306 Torsion                  4     3    71    83         -97.67357
  307 Torsion                  4     3    71    94         104.65404
  308 Torsion                  4     5     7     9           3.92715
  309 Torsion                  4     5     7    11         124.02115
  310 Torsion                  4     5     7    12        -116.08951
  311 Torsion                  4     5     8    13         -83.69781
  312 Torsion                  4     5     8    14          96.68986
  313 Torsion                  4     6     9     7           6.17777
  314 Torsion                  4     6     9    15        -113.82671
  315 Torsion                  4     6     9    16         126.86740
  316 Torsion                  4     6    10    17         -98.43726
  317 Torsion                  4     6    10    18          82.69661
  318 Torsion                  5     4     3    71          36.59412
  319 Torsion                  5     4     6     9          -3.93487
  320 Torsion                  5     4     6    10         178.54406
  321 Torsion                  5     7     9     6          -5.55491
  322 Torsion                  5     7     9    15         112.51777
  323 Torsion                  5     7     9    16        -124.54342
  324 Torsion                  5     8    13    19         179.25701
  325 Torsion                  5     8    13    20          -3.10350
  326 Torsion                  5     8    14    21         179.44155
  327 Torsion                  5     8    14    22          -1.02606
  328 Torsion                  6     4     3    71        -132.78348
  329 Torsion                  6     4     5     7          -0.26577
  330 Torsion                  6     4     5     8        -178.18784
  331 Torsion                  6     9     7    11        -123.92433
  332 Torsion                  6     9     7    12         113.06389
  333 Torsion                  6    10    17    23         179.68953
  334 Torsion                  6    10    17    24          -2.82711
  335 Torsion                  6    10    18    25         179.94119
  336 Torsion                  6    10    18    26           0.73677
  337 Torsion                  7     5     8    13          98.54741
  338 Torsion                  7     5     8    14         -81.06491
  339 Torsion                  7     9     6    10        -176.14840
  340 Torsion                  8     5     7     9        -178.12910
  341 Torsion                  8     5     7    11         -58.03510
  342 Torsion                  8     5     7    12          61.85424
  343 Torsion                  8    13    19    27           1.40299
  344 Torsion                  8    13    19    28        -178.55455
  345 Torsion                  8    13    20    29        -105.40467
  346 Torsion                  8    13    20    30         130.35628
  347 Torsion                  8    13    20    31          11.99215
  348 Torsion                  8    14    21    27           1.24251
  349 Torsion                  8    14    21    32         179.61790
  350 Torsion                  8    14    22    33        -127.44692
  351 Torsion                  8    14    22    34         108.88468
  352 Torsion                  8    14    22    35          -9.77250
  353 Torsion                  9     6    10    17          84.19645
  354 Torsion                  9     6    10    18         -94.66968
  355 Torsion                 10     6     9    15          63.84712
  356 Torsion                 10     6     9    16         -55.45876
  357 Torsion                 10    17    23    36           0.67974
  358 Torsion                 10    17    23    37        -179.34514
  359 Torsion                 10    17    24    38        -107.90435
  360 Torsion                 10    17    24    39         128.38492
  361 Torsion                 10    17    24    40          10.13337
  362 Torsion                 10    18    25    36           0.04244
  363 Torsion                 10    18    25    41         178.87086
  364 Torsion                 10    18    26    42        -133.12272
  365 Torsion                 10    18    26    43         102.89359
  366 Torsion                 10    18    26    44         -15.13537
  367 Torsion                 11     7     9    15          -5.85165
  368 Torsion                 11     7     9    16         117.08716
  369 Torsion                 12     7     9    15        -128.86344
  370 Torsion                 12     7     9    16          -5.92463
  371 Torsion                 13     8    14    21          -0.15765
  372 Torsion                 13     8    14    22         179.37474
  373 Torsion                 13    19    27    21          -0.36752
  374 Torsion                 13    19    27    45        -179.56982
  375 Torsion                 13    20    29    46          56.43783
  376 Torsion                 13    20    29    47         -63.27620
  377 Torsion                 13    20    29    48         177.16894
  378 Torsion                 13    20    30    49         -53.99804
  379 Torsion                 13    20    30    50        -174.39280
  380 Torsion                 13    20    30    51          66.64952
  381 Torsion                 14     8    13    19          -1.14437
  382 Torsion                 14     8    13    20         176.49512
  383 Torsion                 14    21    27    19          -1.00266
  384 Torsion                 14    21    27    45         178.19947
  385 Torsion                 14    22    33    52          51.97446
  386 Torsion                 14    22    33    53         -68.47639
  387 Torsion                 14    22    33    54         172.22740
  388 Torsion                 14    22    34    55         -56.13871
  389 Torsion                 14    22    34    56        -177.12182
  390 Torsion                 14    22    34    57          63.43168
  391 Torsion                 17    10    18    25           1.12683
  392 Torsion                 17    10    18    26        -178.07760
  393 Torsion                 17    23    36    25           0.43271
  394 Torsion                 17    23    36    58        -179.55543
  395 Torsion                 17    24    38    59          54.71759
  396 Torsion                 17    24    38    60         -64.78176
  397 Torsion                 17    24    38    61         175.85073
  398 Torsion                 17    24    39    62         -57.33736
  399 Torsion                 17    24    39    63        -177.57512
  400 Torsion                 17    24    39    64          63.42046
  401 Torsion                 18    10    17    23          -1.48367
  402 Torsion                 18    10    17    24         175.99970
  403 Torsion                 18    25    36    23          -0.80813
  404 Torsion                 18    25    36    58         179.18001
  405 Torsion                 18    26    42    65          51.11774
  406 Torsion                 18    26    42    66         -69.42367
  407 Torsion                 18    26    42    67         171.84760
  408 Torsion                 18    26    43    68         -56.58299
  409 Torsion                 18    26    43    69        -177.55872
  410 Torsion                 18    26    43    70          63.04436
  411 Torsion                 19    13    20    29          72.18113
  412 Torsion                 19    13    20    30         -52.05792
  413 Torsion                 19    13    20    31        -170.42205
  414 Torsion                 19    27    21    32        -179.37866
  415 Torsion                 20    13    19    27        -176.28572
  416 Torsion                 20    13    19    28           3.75675
  417 Torsion                 21    14    22    33          52.07542
  418 Torsion                 21    14    22    34         -71.59298
  419 Torsion                 21    14    22    35         169.74985
  420 Torsion                 21    27    19    28         179.59000
  421 Torsion                 22    14    21    27        -178.29867
  422 Torsion                 22    14    21    32           0.07672
  423 Torsion                 23    17    24    38          69.52117
  424 Torsion                 23    17    24    39         -54.18955
  425 Torsion                 23    17    24    40        -172.44111
  426 Torsion                 23    36    25    41        -179.63681
  427 Torsion                 24    17    23    36        -176.85545
  428 Torsion                 24    17    23    37           3.11966
  429 Torsion                 25    18    26    42          47.69372
  430 Torsion                 25    18    26    43         -76.28997
  431 Torsion                 25    18    26    44         165.68107
  432 Torsion                 25    36    23    37        -179.54239
  433 Torsion                 26    18    25    36         179.26034
  434 Torsion                 26    18    25    41          -1.91125
  435 Torsion                 28    19    27    45           0.38770
  436 Torsion                 29    20    30    49        -177.57398
  437 Torsion                 29    20    30    50          62.03126
  438 Torsion                 29    20    30    51         -56.92642
  439 Torsion                 30    20    29    46        -178.50706
  440 Torsion                 30    20    29    47          61.77892
  441 Torsion                 30    20    29    48         -57.77594
  442 Torsion                 31    20    29    46         -61.01990
  443 Torsion                 31    20    29    47         179.26608
  444 Torsion                 31    20    29    48          59.71122
  445 Torsion                 31    20    30    49          64.67669
  446 Torsion                 31    20    30    50         -55.71807
  447 Torsion                 31    20    30    51        -174.67575
  448 Torsion                 32    21    27    45          -0.17652
  449 Torsion                 33    22    34    55         179.40429
  450 Torsion                 33    22    34    56          58.42119
  451 Torsion                 33    22    34    57         -61.02532
  452 Torsion                 34    22    33    52         175.88241
  453 Torsion                 34    22    33    53          55.43156
  454 Torsion                 34    22    33    54         -63.86466
  455 Torsion                 35    22    33    52         -66.10651
  456 Torsion                 35    22    33    53         173.44264
  457 Torsion                 35    22    33    54          54.14643
  458 Torsion                 35    22    34    55          62.16775
  459 Torsion                 35    22    34    56         -58.81536
  460 Torsion                 35    22    34    57        -178.26186
  461 Torsion                 37    23    36    58           0.46947
  462 Torsion                 38    24    39    62         178.99977
  463 Torsion                 38    24    39    63          58.76200
  464 Torsion                 38    24    39    64         -60.24242
  465 Torsion                 39    24    38    59         179.90440
  466 Torsion                 39    24    38    60          60.40506
  467 Torsion                 39    24    38    61         -58.96246
  468 Torsion                 40    24    38    59         -63.12283
  469 Torsion                 40    24    38    60         177.37783
  470 Torsion                 40    24    38    61          58.01031
  471 Torsion                 40    24    39    62          61.35807
  472 Torsion                 40    24    39    63         -58.87970
  473 Torsion                 40    24    39    64        -177.88412
  474 Torsion                 41    25    36    58           0.35133
  475 Torsion                 42    26    43    68         178.30625
  476 Torsion                 42    26    43    69          57.33052
  477 Torsion                 42    26    43    70         -62.06640
  478 Torsion                 43    26    42    65         175.00397
  479 Torsion                 43    26    42    66          54.46256
  480 Torsion                 43    26    42    67         -64.26617
  481 Torsion                 44    26    42    65         -67.23136
  482 Torsion                 44    26    42    66         172.22723
  483 Torsion                 44    26    42    67          53.49849
  484 Torsion                 44    26    43    68          61.18283
  485 Torsion                 44    26    43    69         -59.79289
  486 Torsion                 44    26    43    70        -179.18982
  487 Torsion                 71     3     1    77         -90.29828
  488 Torsion                 71    83    84    86        -178.45620
  489 Torsion                 71    83    84    87           1.98999
  490 Torsion                 71    83    85    88         178.59682
  491 Torsion                 71    83    85    89           0.59988
  492 Torsion                 72    73    76    77           0.15391
  493 Torsion                 72    73    76    79         179.95965
  494 Torsion                 72    75    78    77          -0.13388
  495 Torsion                 72    75    78    80         178.78018
  496 Torsion                 73    72    75    74         179.04417
  497 Torsion                 73    72    75    78          -0.58268
  498 Torsion                 73    76    77    78          -0.86748
  499 Torsion                 74    75    72    81          -0.49531
  500 Torsion                 74    75    78    77        -179.76123
  501 Torsion                 74    75    78    80          -0.84717
  502 Torsion                 75    72    73    76           0.57261
  503 Torsion                 75    72    73    82        -179.29471
  504 Torsion                 75    78    77    76           0.85863
  505 Torsion                 76    73    72    81        -179.88758
  506 Torsion                 76    77    78    80        -178.07506
  507 Torsion                 77    76    73    82        -179.97897
  508 Torsion                 78    75    72    81         179.87783
  509 Torsion                 78    77    76    79         179.32062
  510 Torsion                 79    76    73    82          -0.17323
  511 Torsion                 81    72    73    82           0.24510
  512 Torsion                 83    71    94    95         -64.03557
  513 Torsion                 83    71    94    96          57.28860
  514 Torsion                 83    71    94    97         176.72101
  515 Torsion                 83    84    86    90           0.01963
  516 Torsion                 83    84    86    91        -179.84845
  517 Torsion                 83    85    88    90          -0.14746
  518 Torsion                 83    85    88    92        -179.04014
  519 Torsion                 84    83    71    94           6.90761
  520 Torsion                 84    83    85    88           0.07353
  521 Torsion                 84    83    85    89        -177.92341
  522 Torsion                 84    86    90    88          -0.08923
  523 Torsion                 84    86    90    93         179.41629
  524 Torsion                 85    83    71    94        -171.50477
  525 Torsion                 85    83    84    86          -0.00975
  526 Torsion                 85    83    84    87        -179.56356
  527 Torsion                 85    88    90    86           0.15174
  528 Torsion                 85    88    90    93        -179.35330
  529 Torsion                 86    90    88    92         179.03536
  530 Torsion                 87    84    86    90         179.57938
  531 Torsion                 87    84    86    91          -0.28870
  532 Torsion                 88    90    86    91         179.77765
  533 Torsion                 89    85    88    90         177.81995
  534 Torsion                 89    85    88    92          -1.07273
  535 Torsion                 91    86    90    93          -0.71682
  536 Torsion                 92    88    90    93          -0.46969


            XYZ format geometry
            -------------------
    97
 geometry
 C                     1.41322387     0.84195862    -1.13631276
 O                     1.32050982     1.61820235    -2.05709612
 Ni                    0.08874774    -0.39535399    -0.84444539
 C                    -1.08775162     0.52216335     0.32551677
 N                    -1.96450454    -0.23323988     1.00798538
 N                    -1.40649309     1.79836301     0.54573424
 C                    -2.95849928     0.53312218     1.76031689
 C                    -1.91224531    -1.66104690     1.04128687
 C                    -2.62045477     1.96998149     1.35268567
 C                    -0.71168680     2.93831631     0.03216271
 H                    -3.96760936     0.23641532     1.47014411
 H                    -2.84680836     0.36237241     2.83289622
 C                    -2.49957157    -2.38560657    -0.00251817
 C                    -1.28123468    -2.28879874     2.12317377
 H                    -3.40509987     2.43075067     0.74880513
 H                    -2.42272798     2.61821218     2.20606250
 C                     0.20754426     3.58210153     0.86610323
 C                    -0.98895510     3.38073634    -1.26321623
 C                    -2.42025075    -3.77403362     0.04723261
 C                    -3.24985426    -1.70643835    -1.13290980
 C                    -1.25147238    -3.67757789     2.14275573
 C                    -0.63463729    -1.49766196     3.24391212
 C                     0.88265433     4.68491649     0.35596831
 C                     0.43608692     3.14663145     2.30235478
 C                    -0.29602795     4.49127514    -1.72784421
 C                    -2.01967109     2.69815491    -2.14131062
 C                    -1.80683742    -4.41420192     1.10901260
 H                    -2.84422833    -4.36131200    -0.75713361
 C                    -4.75786216    -1.90688877    -0.95096433
 C                    -2.79381672    -2.18939764    -2.50991298
 H                    -3.04502492    -0.63500503    -1.07739815
 H                    -0.76514397    -4.19072058     2.96331008
 C                     0.81182982    -1.93334162     3.48578628
 C                    -1.45068273    -1.61432571     4.53447902
 H                    -0.61029867    -0.44758550     2.94318313
 C                     0.63643508     5.13277560    -0.93080264
 H                     1.60916771     5.19956852     0.97270351
 C                    -0.16321399     4.17488124     3.26830443
 C                     1.91217836     2.91562049     2.62414689
 H                    -0.07987409     2.19475507     2.45184833
 H                    -0.47387057     4.84887366    -2.73391477
 C                    -1.50361465     2.44002053    -3.55710093
 C                    -3.31299378     3.51866477    -2.18178549
 H                    -2.24534627     1.72599085    -1.69761785
 H                    -1.74919882    -5.49494366     1.12581850
 H                    -5.09882592    -1.54095186     0.01983534
 H                    -5.01353469    -2.96690536    -1.01219568
 H                    -5.31132860    -1.38054003    -1.73060278
 H                    -1.71332579    -2.08599924    -2.62311710
 H                    -3.28630331    -1.60607082    -3.29033735
 H                    -3.05487873    -3.23737795    -2.67036183
 H                     1.38935391    -1.92551369     2.56154987
 H                     0.85761209    -2.94179780     3.90141755
 H                     1.29384635    -1.26044413     4.19733447
 H                    -2.48571145    -1.29893812     4.39119509
 H                    -1.01052708    -1.00325055     5.32463227
 H                    -1.46974127    -2.64978411     4.88105783
 H                     1.17603802     5.98888811    -1.31562990
 H                    -1.21869355     4.36290723     3.06232101
 H                     0.36005141     5.12931257     3.18031249
 H                    -0.06802510     3.83375996     4.30108443
 H                     2.35430181     2.17471648     1.96043472
 H                     2.01883513     2.56377926     3.65249509
 H                     2.48692255     3.83923344     2.53163263
 H                    -0.54013766     1.93390943    -3.52737022
 H                    -1.38549046     3.37280975    -4.11281240
 H                    -2.21793231     1.82308788    -4.10631028
 H                    -3.71897666     3.69187237    -1.18316962
 H                    -4.07250816     3.00908548    -2.77814958
 H                    -3.12835708     4.49563005    -2.63413998
 N                     0.79682144    -1.58426777    -2.05447215
 C                     4.95510045     0.79104744     1.26224960
 C                     4.77076458     1.78554149     0.30732450
 H                     4.15097095    -0.98636961     2.16020661
 C                     4.00048656    -0.20327346     1.42758313
 C                     3.62672955     1.79193851    -0.47329802
 C                     2.66112559     0.80427851    -0.29860278
 C                     2.85517061    -0.19470038     0.64464846
 H                     3.45562004     2.55331627    -1.22374779
 H                     2.10857279    -0.97310406     0.74568212
 H                     5.84935476     0.78874001     1.87289400
 H                     5.52324459     2.55267033     0.17382443
 C                     1.54300662    -2.67587324    -1.65317615
 C                     2.55308484    -3.26439670    -2.43241525
 C                     1.27252120    -3.27202811    -0.40612017
 C                     3.24342119    -4.38143462    -1.97977451
 H                     2.81001727    -2.84704177    -3.39533122
 C                     1.96500406    -4.38107864     0.03515753
 H                     0.47375750    -2.85773873     0.20026834
 C                     2.96274472    -4.95393814    -0.74971435
 H                     4.01800405    -4.80700591    -2.60699153
 H                     1.71209396    -4.81631813     0.99596890
 H                     3.50053335    -5.82970470    -0.41138173
 C                     1.00083436    -1.14553186    -3.42237930
 H                     2.01975235    -0.78289984    -3.61407644
 H                     0.79689488    -1.95797174    -4.13042809
 H                     0.32312562    -0.32236628    -3.64221241

 ==============================================================================
                                internuclear distances
 ------------------------------------------------------------------------------
       center one      |      center two      | atomic units |  angstroms
 ------------------------------------------------------------------------------
    2 O                |   1 C                |     2.28258  |     1.20789
    3 Ni               |   1 C                |     3.46926  |     1.83586
    4 C                |   3 Ni               |     3.58291  |     1.89600
    5 N                |   4 C                |     2.53892  |     1.34354
    6 N                |   4 C                |     2.52034  |     1.33371
    7 C                |   5 N                |     2.76530  |     1.46333
    8 C                |   5 N                |     2.70070  |     1.42915
    9 C                |   6 N                |     2.77367  |     1.46776
    9 C                |   7 C                |     2.89381  |     1.53134
   10 C                |   6 N                |     2.70304  |     1.43039
   11 H                |   7 C                |     2.06191  |     1.09112
   12 H                |   7 C                |     2.06323  |     1.09181
   13 C                |   8 C                |     2.64526  |     1.39981
   14 C                |   8 C                |     2.64746  |     1.40097
   15 H                |   9 C                |     2.06374  |     1.09208
   16 H                |   9 C                |     2.05933  |     1.08975
   17 C                |  10 C                |     2.64217  |     1.39818
   18 C                |  10 C                |     2.63928  |     1.39665
   19 C                |  13 C                |     2.62971  |     1.39158
   20 C                |  13 C                |     2.86714  |     1.51723
   21 C                |  14 C                |     2.62528  |     1.38924
   22 C                |  14 C                |     2.86594  |     1.51659
   23 C                |  17 C                |     2.62680  |     1.39004
   24 C                |  17 C                |     2.86883  |     1.51812
   25 C                |  18 C                |     2.62483  |     1.38900
   26 C                |  18 C                |     2.86550  |     1.51636
   27 C                |  19 C                |     2.61402  |     1.38328
   27 C                |  21 C                |     2.61826  |     1.38552
   28 H                |  19 C                |     2.04550  |     1.08243
   29 C                |  20 C                |     2.89528  |     1.53211
   30 C                |  20 C                |     2.88909  |     1.52884
   31 H                |  20 C                |     2.06405  |     1.09225
   32 H                |  21 C                |     2.04679  |     1.08312
   33 C                |  22 C                |     2.89109  |     1.52990
   34 C                |  22 C                |     2.89388  |     1.53137
   35 H                |  22 C                |     2.06464  |     1.09256
   36 C                |  23 C                |     2.61642  |     1.38455
   36 C                |  25 C                |     2.61595  |     1.38430
   37 H                |  23 C                |     2.04671  |     1.08307
   38 C                |  24 C                |     2.89660  |     1.53281
   39 C                |  24 C                |     2.88811  |     1.52832
   40 H                |  24 C                |     2.06546  |     1.09299
   41 H                |  25 C                |     2.04552  |     1.08244
   42 C                |  26 C                |     2.88912  |     1.52886
   43 C                |  26 C                |     2.89539  |     1.53217
   44 H                |  26 C                |     2.06395  |     1.09220
   45 H                |  27 C                |     2.04545  |     1.08241
   46 H                |  29 C                |     2.06371  |     1.09207
   47 H                |  29 C                |     2.06383  |     1.09213
   48 H                |  29 C                |     2.06249  |     1.09142
   49 H                |  30 C                |     2.06229  |     1.09131
   50 H                |  30 C                |     2.06307  |     1.09173
   51 H                |  30 C                |     2.06332  |     1.09186
   52 H                |  33 C                |     2.05955  |     1.08987
   53 H                |  33 C                |     2.06303  |     1.09171
   54 H                |  33 C                |     2.06269  |     1.09153
   55 H                |  34 C                |     2.06256  |     1.09146
   56 H                |  34 C                |     2.06274  |     1.09155
   57 H                |  34 C                |     2.06375  |     1.09209
   58 H                |  36 C                |     2.04597  |     1.08268
   59 H                |  38 C                |     2.06302  |     1.09171
   60 H                |  38 C                |     2.06360  |     1.09201
   61 H                |  38 C                |     2.06323  |     1.09181
   62 H                |  39 C                |     2.05705  |     1.08854
   63 H                |  39 C                |     2.06376  |     1.09209
   64 H                |  39 C                |     2.06314  |     1.09176
   65 H                |  42 C                |     2.05739  |     1.08872
   66 H                |  42 C                |     2.06393  |     1.09218
   67 H                |  42 C                |     2.06360  |     1.09201
   68 H                |  43 C                |     2.06323  |     1.09181
   69 H                |  43 C                |     2.06334  |     1.09187
   70 H                |  43 C                |     2.06420  |     1.09233
   71 N                |   3 Ni               |     3.47373  |     1.83822
   73 C                |  72 C                |     2.62861  |     1.39100
   75 C                |  72 C                |     2.62345  |     1.38827
   75 C                |  74 H                |     2.04634  |     1.08288
   76 C                |  73 C                |     2.61727  |     1.38500
   77 C                |   1 C                |     2.84116  |     1.50347
   77 C                |  76 C                |     2.63099  |     1.39226
   78 C                |  75 C                |     2.62176  |     1.38737
   78 C                |  77 C                |     2.62212  |     1.38756
   79 H                |  76 C                |     2.04593  |     1.08266
   80 H                |  78 C                |     2.04713  |     1.08330
   81 H                |  72 C                |     2.04631  |     1.08286
   82 H                |  73 C                |     2.04626  |     1.08284
   83 C                |  71 N                |     2.61127  |     1.38182
   84 C                |  83 C                |     2.65493  |     1.40493
   85 C                |  83 C                |     2.66157  |     1.40844
   86 C                |  84 C                |     2.62476  |     1.38896
   87 H                |  84 C                |     2.04178  |     1.08047
   88 C                |  85 C                |     2.60772  |     1.37995
   89 H                |  85 C                |     2.05048  |     1.08507
   90 C                |  86 C                |     2.61820  |     1.38549
   90 C                |  88 C                |     2.63187  |     1.39272
   91 H                |  86 C                |     2.04797  |     1.08374
   92 H                |  88 C                |     2.04977  |     1.08469
   93 H                |  90 C                |     2.04462  |     1.08197
   94 C                |  71 N                |     2.74191  |     1.45096
   95 H                |  94 C                |     2.07564  |     1.09838
   96 H                |  94 C                |     2.07266  |     1.09681
   97 H                |  94 C                |     2.05730  |     1.08868
 ------------------------------------------------------------------------------
                         number of included internuclear distances:        101
 ==============================================================================



 ==============================================================================
                                 internuclear angles
 ------------------------------------------------------------------------------
        center 1       |       center 2       |       center 3       |  degrees
 ------------------------------------------------------------------------------
    2 O                |   1 C                |   3 Ni               |   119.93
    2 O                |   1 C                |  77 C                |   120.30
    3 Ni               |   1 C                |  77 C                |   119.56
    1 C                |   3 Ni               |   4 C                |   102.69
    1 C                |   3 Ni               |  71 N                |    93.06
    4 C                |   3 Ni               |  71 N                |   163.38
    3 Ni               |   4 C                |   5 N                |   116.51
    3 Ni               |   4 C                |   6 N                |   135.50
    5 N                |   4 C                |   6 N                |   107.35
    4 C                |   5 N                |   7 C                |   114.20
    4 C                |   5 N                |   8 C                |   123.35
    7 C                |   5 N                |   8 C                |   122.42
    4 C                |   6 N                |   9 C                |   113.60
    4 C                |   6 N                |  10 C                |   125.96
    9 C                |   6 N                |  10 C                |   120.40
    5 N                |   7 C                |   9 C                |   101.81
    5 N                |   7 C                |  11 H                |   110.43
    5 N                |   7 C                |  12 H                |   110.71
    9 C                |   7 C                |  11 H                |   112.86
    9 C                |   7 C                |  12 H                |   112.68
   11 H                |   7 C                |  12 H                |   108.26
    5 N                |   8 C                |  13 C                |   118.97
    5 N                |   8 C                |  14 C                |   118.82
   13 C                |   8 C                |  14 C                |   122.20
    6 N                |   9 C                |   7 C                |   102.66
    6 N                |   9 C                |  15 H                |   109.85
    6 N                |   9 C                |  16 H                |   110.49
    7 C                |   9 C                |  15 H                |   112.61
    7 C                |   9 C                |  16 H                |   112.94
   15 H                |   9 C                |  16 H                |   108.20
    6 N                |  10 C                |  17 C                |   118.17
    6 N                |  10 C                |  18 C                |   119.28
   17 C                |  10 C                |  18 C                |   122.54
    8 C                |  13 C                |  19 C                |   117.77
    8 C                |  13 C                |  20 C                |   122.10
   19 C                |  13 C                |  20 C                |   120.10
    8 C                |  14 C                |  21 C                |   117.94
    8 C                |  14 C                |  22 C                |   121.94
   21 C                |  14 C                |  22 C                |   120.13
   10 C                |  17 C                |  23 C                |   117.76
   10 C                |  17 C                |  24 C                |   122.09
   23 C                |  17 C                |  24 C                |   120.11
   10 C                |  18 C                |  25 C                |   117.68
   10 C                |  18 C                |  26 C                |   121.97
   25 C                |  18 C                |  26 C                |   120.35
   13 C                |  19 C                |  27 C                |   120.96
   13 C                |  19 C                |  28 H                |   119.50
   27 C                |  19 C                |  28 H                |   119.54
   13 C                |  20 C                |  29 C                |   109.86
   13 C                |  20 C                |  30 C                |   112.47
   13 C                |  20 C                |  31 H                |   107.97
   29 C                |  20 C                |  30 C                |   111.05
   29 C                |  20 C                |  31 H                |   107.87
   30 C                |  20 C                |  31 H                |   107.44
   14 C                |  21 C                |  27 C                |   120.82
   14 C                |  21 C                |  32 H                |   119.60
   27 C                |  21 C                |  32 H                |   119.56
   14 C                |  22 C                |  33 C                |   111.80
   14 C                |  22 C                |  34 C                |   110.85
   14 C                |  22 C                |  35 H                |   107.91
   33 C                |  22 C                |  34 C                |   110.42
   33 C                |  22 C                |  35 H                |   107.23
   34 C                |  22 C                |  35 H                |   108.49
   17 C                |  23 C                |  36 C                |   120.75
   17 C                |  23 C                |  37 H                |   119.59
   36 C                |  23 C                |  37 H                |   119.66
   17 C                |  24 C                |  38 C                |   110.18
   17 C                |  24 C                |  39 C                |   112.83
   17 C                |  24 C                |  40 H                |   107.95
   38 C                |  24 C                |  39 C                |   110.26
   38 C                |  24 C                |  40 H                |   108.27
   39 C                |  24 C                |  40 H                |   107.19
   18 C                |  25 C                |  36 C                |   120.93
   18 C                |  25 C                |  41 H                |   119.54
   36 C                |  25 C                |  41 H                |   119.52
   18 C                |  26 C                |  42 C                |   112.51
   18 C                |  26 C                |  43 C                |   110.37
   18 C                |  26 C                |  44 H                |   107.81
   42 C                |  26 C                |  43 C                |   110.54
   42 C                |  26 C                |  44 H                |   107.20
   43 C                |  26 C                |  44 H                |   108.24
   19 C                |  27 C                |  21 C                |   120.29
   19 C                |  27 C                |  45 H                |   119.84
   21 C                |  27 C                |  45 H                |   119.86
   20 C                |  29 C                |  46 H                |   111.66
   20 C                |  29 C                |  47 H                |   110.53
   20 C                |  29 C                |  48 H                |   110.56
   46 H                |  29 C                |  47 H                |   107.58
   46 H                |  29 C                |  48 H                |   108.37
   47 H                |  29 C                |  48 H                |   108.02
   20 C                |  30 C                |  49 H                |   111.03
   20 C                |  30 C                |  50 H                |   109.91
   20 C                |  30 C                |  51 H                |   111.36
   49 H                |  30 C                |  50 H                |   108.78
   49 H                |  30 C                |  51 H                |   108.21
   50 H                |  30 C                |  51 H                |   107.45
   22 C                |  33 C                |  52 H                |   111.40
   22 C                |  33 C                |  53 H                |   111.28
   22 C                |  33 C                |  54 H                |   110.18
   52 H                |  33 C                |  53 H                |   107.89
   52 H                |  33 C                |  54 H                |   108.32
   53 H                |  33 C                |  54 H                |   107.62
   22 C                |  34 C                |  55 H                |   111.88
   22 C                |  34 C                |  56 H                |   110.64
   22 C                |  34 C                |  57 H                |   110.43
   55 H                |  34 C                |  56 H                |   108.40
   55 H                |  34 C                |  57 H                |   107.40
   56 H                |  34 C                |  57 H                |   107.94
   23 C                |  36 C                |  25 C                |   120.33
   23 C                |  36 C                |  58 H                |   119.83
   25 C                |  36 C                |  58 H                |   119.83
   24 C                |  38 C                |  59 H                |   112.00
   24 C                |  38 C                |  60 H                |   110.38
   24 C                |  38 C                |  61 H                |   110.64
   59 H                |  38 C                |  60 H                |   107.31
   59 H                |  38 C                |  61 H                |   108.46
   60 H                |  38 C                |  61 H                |   107.91
   24 C                |  39 C                |  62 H                |   111.52
   24 C                |  39 C                |  63 H                |   109.96
   24 C                |  39 C                |  64 H                |   111.27
   62 H                |  39 C                |  63 H                |   108.37
   62 H                |  39 C                |  64 H                |   108.08
   63 H                |  39 C                |  64 H                |   107.51
   26 C                |  42 C                |  65 H                |   110.60
   26 C                |  42 C                |  66 H                |   111.31
   26 C                |  42 C                |  67 H                |   109.90
   65 H                |  42 C                |  66 H                |   108.37
   65 H                |  42 C                |  67 H                |   109.27
   66 H                |  42 C                |  67 H                |   107.30
   26 C                |  43 C                |  68 H                |   112.00
   26 C                |  43 C                |  69 H                |   110.59
   26 C                |  43 C                |  70 H                |   110.32
   68 H                |  43 C                |  69 H                |   108.36
   68 H                |  43 C                |  70 H                |   107.44
   69 H                |  43 C                |  70 H                |   107.99
    3 Ni               |  71 N                |  83 C                |   121.86
    3 Ni               |  71 N                |  94 C                |   118.63
   83 C                |  71 N                |  94 C                |   115.90
   73 C                |  72 C                |  75 C                |   120.18
   73 C                |  72 C                |  81 H                |   119.87
   75 C                |  72 C                |  81 H                |   119.95
   72 C                |  73 C                |  76 C                |   119.98
   72 C                |  73 C                |  82 H                |   119.94
   76 C                |  73 C                |  82 H                |   120.08
   72 C                |  75 C                |  74 H                |   120.20
   72 C                |  75 C                |  78 C                |   119.74
   74 H                |  75 C                |  78 C                |   120.07
   73 C                |  76 C                |  77 C                |   119.93
   73 C                |  76 C                |  79 H                |   121.63
   77 C                |  76 C                |  79 H                |   118.44
    1 C                |  77 C                |  76 C                |   119.21
    1 C                |  77 C                |  78 C                |   120.86
   76 C                |  77 C                |  78 C                |   119.94
   75 C                |  78 C                |  77 C                |   120.23
   75 C                |  78 C                |  80 H                |   120.79
   77 C                |  78 C                |  80 H                |   118.97
   71 N                |  83 C                |  84 C                |   123.92
   71 N                |  83 C                |  85 C                |   119.20
   84 C                |  83 C                |  85 C                |   116.86
   83 C                |  84 C                |  86 C                |   120.90
   83 C                |  84 C                |  87 H                |   120.23
   86 C                |  84 C                |  87 H                |   118.87
   83 C                |  85 C                |  88 C                |   121.80
   83 C                |  85 C                |  89 H                |   118.33
   88 C                |  85 C                |  89 H                |   119.84
   84 C                |  86 C                |  90 C                |   121.40
   84 C                |  86 C                |  91 H                |   118.84
   90 C                |  86 C                |  91 H                |   119.76
   85 C                |  88 C                |  90 C                |   120.65
   85 C                |  88 C                |  92 H                |   119.26
   90 C                |  88 C                |  92 H                |   120.08
   86 C                |  90 C                |  88 C                |   118.39
   86 C                |  90 C                |  93 H                |   120.76
   88 C                |  90 C                |  93 H                |   120.85
   71 N                |  94 C                |  95 H                |   113.25
   71 N                |  94 C                |  96 H                |   111.01
   71 N                |  94 C                |  97 H                |   109.36
   95 H                |  94 C                |  96 H                |   107.72
   95 H                |  94 C                |  97 H                |   107.01
   96 H                |  94 C                |  97 H                |   108.30
 ------------------------------------------------------------------------------
                            number of included internuclear angles:        180
 ==============================================================================



                      Basis "ao basis" -> "" (cartesian)
                      -----
  C (Carbon)
  ----------
            Exponent  Coefficients 
       -------------- ---------------------------------------------------------
  1 S  1.23840169E+03  0.005457
  1 S  1.86290050E+02  0.040638
  1 S  4.22511763E+01  0.180256
  1 S  1.16765579E+01  0.463151
  1 S  3.59305065E+00  0.440872

  2 S  4.02451474E-01  1.000000

  3 S  1.30901827E-01  1.000000

  4 P  9.46809706E+00  0.038388
  4 P  2.01035451E+00  0.211170
  4 P  5.47710047E-01  0.513282

  5 P  1.52686138E-01  1.000000

  H (Hydrogen)
  ------------
            Exponent  Coefficients 
       -------------- ---------------------------------------------------------
  1 S  1.30107010E+01  0.019682
  1 S  1.96225720E+00  0.137965
  1 S  4.44537960E-01  0.478319

  2 S  1.21949620E-01  1.000000

  O (Oxygen)
  ----------
            Exponent  Coefficients 
       -------------- ---------------------------------------------------------
  1 S  2.26617678E+03 -0.005343
  1 S  3.40870102E+02 -0.039890
  1 S  7.73631352E+01 -0.178539
  1 S  2.14796449E+01 -0.464277
  1 S  6.65894331E+00 -0.443097

  2 S  8.09759757E-01  1.000000

  3 S  2.55307722E-01  1.000000

  4 P  1.77215043E+01  0.043395
  4 P  3.86355054E+00  0.230941
  4 P  1.04809209E+00  0.513753

  5 P  2.76415444E-01  1.000000

  N (Nitrogen)
  ------------
            Exponent  Coefficients 
       -------------- ---------------------------------------------------------
  1 S  1.71284159E+03 -0.005393
  1 S  2.57648127E+02 -0.040222
  1 S  5.84582459E+01 -0.179311
[...]
  ----- ------------  ---------------      ----- ------------  ---------------
   478    -11.524688  84 C  s               202     11.429809  23 C  s         
   220     11.396471  25 C  s               157    -11.104635  18 C  s         
   113     10.875991  10 C  s               507     10.602068  88 C  s         
   148    -10.494953  17 C  s               291    -10.231825  36 C  s         
   496     10.251833  86 C  s               518     -9.649388  90 C  s         

 Vector  526  Occ=0.000000D+00  E= 1.772309D+00
              MO Center= -2.2D-01, -1.0D+00,  2.4D-03, r^2= 1.6D+01
   Bfn.  Coefficient  Atom+Function         Bfn.  Coefficient  Atom+Function  
  ----- ------------  ---------------      ----- ------------  ---------------
   166     12.282234  19 C  s               184     11.937052  21 C  s         
   100    -11.652993   8 C  py              126    -10.818445  13 C  s         
   135    -10.784774  14 C  s                95     10.728398   8 C  s         
   238    -10.706418  27 C  s               132     -7.565311  13 C  pz        
   478     -6.789152  84 C  s               202     -6.732151  23 C  s         

 Vector  527  Occ=0.000000D+00  E= 1.795318D+00
              MO Center=  6.9D-01, -5.8D-01, -1.2D+00, r^2= 1.2D+01
   Bfn.  Coefficient  Atom+Function         Bfn.  Coefficient  Atom+Function  
  ----- ------------  ---------------      ----- ------------  ---------------
   487      9.860370  85 C  s               507     -7.369662  88 C  s         
   496     -6.819602  86 C  s               518      6.087714  90 C  s         
   157     -5.949971  18 C  s               475     -5.899844  83 C  pz        
   202      5.806630  23 C  s               220      5.710593  25 C  s         
   118      5.412169  10 C  py              113      5.367514  10 C  s         

 Vector  528  Occ=0.000000D+00  E= 1.805127D+00
              MO Center=  3.6D-01,  1.3D-01, -1.1D+00, r^2= 9.5D+00
   Bfn.  Coefficient  Atom+Function         Bfn.  Coefficient  Atom+Function  
  ----- ------------  ---------------      ----- ------------  ---------------
    22     18.839724   3 Ni s                23     -5.351084   3 Ni s         
   113      5.136340  10 C  s               220      5.090247  25 C  s         
   469      4.844427  83 C  s                56     -4.458679   3 Ni dzz       
   118      4.458950  10 C  py              229     -4.468477  26 C  s         
   157     -4.345829  18 C  s                51     -4.167878   3 Ni dxx       

 Vector  529  Occ=0.000000D+00  E= 1.919530D+00
              MO Center= -1.3D+00,  6.4D-01,  4.7D-01, r^2= 6.3D+00
   Bfn.  Coefficient  Atom+Function         Bfn.  Coefficient  Atom+Function  
  ----- ------------  ---------------      ----- ------------  ---------------
    22      7.166127   3 Ni s               100     -5.534606   8 C  py        
    73     -4.426643   5 N  py               86      4.289136   7 C  s         
   104     -4.266719   9 C  s                68      3.740302   5 N  s         
   175     -3.600101  20 C  s                81     -3.274880   6 N  px        
   113      2.744120  10 C  s               118     -2.745238  10 C  py        

 Vector  530  Occ=0.000000D+00  E= 1.945096D+00
              MO Center=  6.8D-01,  3.0D-01, -1.3D+00, r^2= 6.9D+00
   Bfn.  Coefficient  Atom+Function         Bfn.  Coefficient  Atom+Function  
  ----- ------------  ---------------      ----- ------------  ---------------
    22     19.852496   3 Ni s                23     -7.373870   3 Ni s         
    12     -5.406676   2 O  s               487      5.111228  85 C  s         
    54     -4.893240   3 Ni dyy              56     -4.680616   3 Ni dzz       
    51     -4.053002   3 Ni dxx             113     -3.364613  10 C  s         
   507     -3.165397  88 C  s                 8      3.059648   1 C  py        

 Vector  531  Occ=0.000000D+00  E= 2.878305D+00
              MO Center=  4.4D-02, -2.9D-01, -1.0D+00, r^2= 2.7D+00
   Bfn.  Coefficient  Atom+Function         Bfn.  Coefficient  Atom+Function  
  ----- ------------  ---------------      ----- ------------  ---------------
    22     10.867421   3 Ni s                21      5.670584   3 Ni s         
    23     -5.176893   3 Ni s                20     -3.133415   3 Ni s         
    45     -2.778412   3 Ni dxx              48     -2.780382   3 Ni dyy       
    50     -2.774030   3 Ni dzz              34      1.955854   3 Ni py        
   487      1.864597  85 C  s                56     -1.568731   3 Ni dzz       

 Vector  532  Occ=0.000000D+00  E= 3.141566D+00
              MO Center=  2.8D-01, -4.7D-01, -6.4D-01, r^2= 1.5D+00
   Bfn.  Coefficient  Atom+Function         Bfn.  Coefficient  Atom+Function  
  ----- ------------  ---------------      ----- ------------  ---------------
    22      6.760498   3 Ni s                21      2.015472   3 Ni s         
   487      1.606466  85 C  s                20     -1.440477   3 Ni s         
   462     -1.443052  80 H  s                51     -1.306886   3 Ni dxx       
   447      1.291134  77 C  px               23     -1.284091   3 Ni s         
    33      1.286485   3 Ni px               56     -1.266276   3 Ni dzz       

 Vector  533  Occ=0.000000D+00  E= 3.287454D+00
              MO Center=  1.9D-01, -3.5D-01, -8.7D-01, r^2= 1.3D+00
   Bfn.  Coefficient  Atom+Function         Bfn.  Coefficient  Atom+Function  
  ----- ------------  ---------------      ----- ------------  ---------------
   448      2.355183  77 C  py              434     -2.288769  76 C  s         
    22     -2.132105   3 Ni s                 8     -1.787284   1 C  py        
   452      1.761629  78 C  s                 3      1.305322   1 C  s         
   447      1.306065  77 C  px               31     -1.249730   3 Ni py        
     7     -1.176362   1 C  px              449     -1.146205  77 C  pz        

 Vector  534  Occ=0.000000D+00  E= 3.375798D+00
              MO Center=  8.5D-02, -4.6D-01, -8.3D-01, r^2= 1.4D+00
   Bfn.  Coefficient  Atom+Function         Bfn.  Coefficient  Atom+Function  
  ----- ------------  ---------------      ----- ------------  ---------------
   487     -1.949233  85 C  s               475      1.794448  83 C  pz        
    64     -1.585074   4 C  py               22     -1.309596   3 Ni s         
    77      1.287788   6 N  s                63      1.234087   4 C  px        
   478      1.229862  84 C  s                35     -1.027325   3 Ni pz        
    30      1.010922   3 Ni px              473     -1.002215  83 C  px        

 Vector  535  Occ=0.000000D+00  E= 4.759872D+00
              MO Center=  9.0D-02, -3.9D-01, -8.4D-01, r^2= 6.3D-01
   Bfn.  Coefficient  Atom+Function         Bfn.  Coefficient  Atom+Function  
  ----- ------------  ---------------      ----- ------------  ---------------
    46      1.035458   3 Ni dxy              45     -0.946892   3 Ni dxx       
    22      0.905221   3 Ni s                40     -0.829799   3 Ni dxy       
    49      0.825081   3 Ni dyz             487      0.718868  85 C  s         
    39      0.669802   3 Ni dxx              43     -0.656328   3 Ni dyz       
    59     -0.630423   4 C  s                56     -0.616000   3 Ni dzz       

 Vector  536  Occ=0.000000D+00  E= 4.806434D+00
              MO Center=  8.2D-02, -4.2D-01, -8.3D-01, r^2= 6.8D-01
   Bfn.  Coefficient  Atom+Function         Bfn.  Coefficient  Atom+Function  
  ----- ------------  ---------------      ----- ------------  ---------------
    95      1.359552   8 C  s               443      1.337332  77 C  s         
    49     -1.203444   3 Ni dyz               9     -1.087308   1 C  pz        
     3     -1.066012   1 C  s                47     -1.006129   3 Ni dxz       
   447     -0.992971  77 C  px               43      0.947303   3 Ni dyz       
   135     -0.893722  14 C  s                 7     -0.861089   1 C  px        

 Vector  537  Occ=0.000000D+00  E= 4.830460D+00
              MO Center=  9.8D-02, -3.9D-01, -8.6D-01, r^2= 6.6D-01
   Bfn.  Coefficient  Atom+Function         Bfn.  Coefficient  Atom+Function  
  ----- ------------  ---------------      ----- ------------  ---------------
    64      1.265857   4 C  py               22     -1.139653   3 Ni s         
    48      1.141753   3 Ni dyy              68      1.064061   5 N  s         
    77     -0.922116   6 N  s                56      0.834200   3 Ni dzz       
    50     -0.807650   3 Ni dzz               3      0.793857   1 C  s         
    42     -0.793112   3 Ni dyy              44      0.725607   3 Ni dzz       

 Vector  538  Occ=0.000000D+00  E= 4.850836D+00
              MO Center=  6.7D-02, -4.1D-01, -8.4D-01, r^2= 6.7D-01
   Bfn.  Coefficient  Atom+Function         Bfn.  Coefficient  Atom+Function  
  ----- ------------  ---------------      ----- ------------  ---------------
    22      4.093210   3 Ni s                 3     -1.449577   1 C  s         
    47      1.431785   3 Ni dxz              46     -1.338825   3 Ni dxy       
    34      1.182309   3 Ni py               41     -1.109298   3 Ni dxz       
    40      1.040456   3 Ni dxy              53     -1.019752   3 Ni dxz       
    52      0.927730   3 Ni dxy              56     -0.826953   3 Ni dzz       

 Vector  539  Occ=0.000000D+00  E= 5.051174D+00
              MO Center=  9.4D-02, -4.0D-01, -8.5D-01, r^2= 6.9D-01
   Bfn.  Coefficient  Atom+Function         Bfn.  Coefficient  Atom+Function  
  ----- ------------  ---------------      ----- ------------  ---------------
    22      2.074709   3 Ni s                49     -1.427711   3 Ni dyz       
    55      1.393311   3 Ni dyz              46      1.326861   3 Ni dxy       
    52     -1.292092   3 Ni dxy              47      1.081971   3 Ni dxz       
    53     -1.047309   3 Ni dxz              43      1.040828   3 Ni dyz       
    40     -0.965848   3 Ni dxy              63     -0.903703   4 C  px        

 Vector  540  Occ=0.000000D+00  E= 1.022223D+01
              MO Center=  9.7D-02, -4.0D-01, -8.5D-01, r^2= 6.7D-01
   Bfn.  Coefficient  Atom+Function         Bfn.  Coefficient  Atom+Function  
  ----- ------------  ---------------      ----- ------------  ---------------
    21     27.800932   3 Ni s                20    -17.562140   3 Ni s         
    45     -7.608124   3 Ni dxx              48     -7.602586   3 Ni dyy       
    50     -7.563951   3 Ni dzz              22      4.836136   3 Ni s         
    23     -1.975760   3 Ni s                19      1.511072   3 Ni s         
    56     -0.762369   3 Ni dzz             487      0.740351  85 C  s         

 Vector  541  Occ=0.000000D+00  E= 4.990459D+01
              MO Center=  9.0D-02, -4.0D-01, -8.4D-01, r^2= 1.1D-01
   Bfn.  Coefficient  Atom+Function         Bfn.  Coefficient  Atom+Function  
  ----- ------------  ---------------      ----- ------------  ---------------
    20     21.446276   3 Ni s                21    -20.739074   3 Ni s         
    45      5.174102   3 Ni dxx              48      5.171489   3 Ni dyy       
    50      5.163084   3 Ni dzz              19     -4.353956   3 Ni s         
    39     -2.734895   3 Ni dxx              42     -2.734108   3 Ni dyy       
    44     -2.731269   3 Ni dzz              22     -2.073666   3 Ni s         

 Vector  542  Occ=0.000000D+00  E= 1.173879D+02
              MO Center=  8.9D-02, -4.0D-01, -8.4D-01, r^2= 2.9D-02
   Bfn.  Coefficient  Atom+Function         Bfn.  Coefficient  Atom+Function  
  ----- ------------  ---------------      ----- ------------  ---------------
    26      0.835237   3 Ni pz               24      0.523263   3 Ni px        
    25     -0.403445   3 Ni py               29     -0.316991   3 Ni pz        
    22     -0.205926   3 Ni s                27     -0.198525   3 Ni px        
    32      0.165622   3 Ni pz               28      0.153161   3 Ni py        
    30      0.103913   3 Ni px              462      0.094162  80 H  s         

 Vector  543  Occ=0.000000D+00  E= 1.175623D+02
              MO Center=  9.0D-02, -3.9D-01, -8.4D-01, r^2= 3.1D-02
   Bfn.  Coefficient  Atom+Function         Bfn.  Coefficient  Atom+Function  
  ----- ------------  ---------------      ----- ------------  ---------------
    25      0.912678   3 Ni py               24      0.540733   3 Ni px        
    28     -0.352712   3 Ni py               27     -0.208936   3 Ni px        
   448     -0.200303  77 C  py               31      0.195404   3 Ni py        
   434      0.193384  76 C  s               452     -0.160529  78 C  s         
    22      0.158649   3 Ni s                 8      0.152472   1 C  py        

 Vector  544  Occ=0.000000D+00  E= 1.175944D+02
              MO Center=  8.9D-02, -4.0D-01, -8.4D-01, r^2= 3.1D-02
   Bfn.  Coefficient  Atom+Function         Bfn.  Coefficient  Atom+Function  
  ----- ------------  ---------------      ----- ------------  ---------------
    24      0.754608   3 Ni px               26     -0.653416   3 Ni pz        
    25     -0.374003   3 Ni py               27     -0.293153   3 Ni px        
    29      0.253874   3 Ni pz               30      0.164919   3 Ni px        
    28      0.145257   3 Ni py               32     -0.142679   3 Ni pz        
    64     -0.134628   4 C  py              487     -0.131461  85 C  s         

 Vector  545  Occ=0.000000D+00  E= 6.766354D+02
              MO Center=  8.9D-02, -4.0D-01, -8.4D-01, r^2= 2.3D-02
   Bfn.  Coefficient  Atom+Function         Bfn.  Coefficient  Atom+Function  
  ----- ------------  ---------------      ----- ------------  ---------------
    20     28.865498   3 Ni s                21    -15.336160   3 Ni s         
    39     -7.285648   3 Ni dxx              42     -7.285517   3 Ni dyy       
    44     -7.286286   3 Ni dzz              19     -4.275269   3 Ni s         
    45      3.402857   3 Ni dxx              48      3.402365   3 Ni dyy       
    50      3.405004   3 Ni dzz              54      0.114897   3 Ni dyy       


 center of mass
 --------------
 x =   0.05437041 y =  -0.02076593 z =  -0.03751544

 moments of inertia (a.u.)
 ------------------
       25723.939056771062          -0.000000000000           0.000000000001
          -0.000000000000       20449.589294663587          -0.000000000000
           0.000000000001          -0.000000000000       29156.593037098170

     Multipole analysis of the density
     ---------------------------------

     L   x y z        total         alpha         beta         nuclear
     -   - - -        -----         -----         ----         -------
     0   0 0 0      0.000000   -172.000000   -172.000000    344.000000

     1   1 0 0     -1.901453     -0.112182     -0.112182     -1.677089
     1   0 1 0      0.999679     -3.235714     -3.235714      7.471107
     1   0 0 1      2.099121     -6.929292     -6.929292     15.957704

     2   2 0 0   -203.321191  -3437.510715  -3437.510715   6671.700240
     2   1 1 0      4.379496      4.202349      4.202349     -4.025203
     2   1 0 1      3.558258    -45.331058    -45.331058     94.220373
     2   0 2 0   -210.258693  -4842.525708  -4842.525708   9474.792723
     2   0 1 1     -2.918243      2.753349      2.753349     -8.424940
     2   0 0 2   -206.754383  -2563.861669  -2563.861669   4920.968955


 Task  times  cpu:     2787.7s     wall:     2787.7s


                                NWChem Input Module
                                -------------------


 Summary of allocated global arrays
-----------------------------------
  No active global arrays


MA_summarize_allocated_blocks: starting scan ...
heap block 'gridpts', handle 119, address 0x59be1966aaa0:
	type of elements:		double precision
	number of elements:		203683869
	address of client space:	0x59be1966ab00
	index for client space:		44552763
	total number of bytes:		1629471056
MA_summarize_allocated_blocks: scan completed: 1 heap block, 0 stack blocks
MA usage statistics:

	allocation statistics:
					      heap	     stack
					      ----	     -----
	current number of blocks	         1	         0
	maximum number of blocks	        34	        58
	current total bytes		1629471056	         0
	maximum total bytes		1648842024	  45545192
	maximum total K-bytes		   1648843	     45546
	maximum total M-bytes		      1649	        46


                                     CITATION
                                     --------
                Please cite the following reference when publishing
                           results obtained with NWChem:

          E. Apra, E. J. Bylaska, W. A. de Jong, N. Govind, K. Kowalski,
       T. P. Straatsma, M. Valiev, H. J. J. van Dam, Y. Alexeev, J. Anchell,
       V. Anisimov, F. W. Aquino, R. Atta-Fynn, J. Autschbach, N. P. Bauman,
     J. C. Becca, D. E. Bernholdt, K. Bhaskaran-Nair, S. Bogatko, P. Borowski,
         J. Boschen, J. Brabec, A. Bruner, E. Cauet, Y. Chen, G. N. Chuev,
      C. J. Cramer, J. Daily, M. J. O. Deegan, T. H. Dunning Jr., M. Dupuis,
   K. G. Dyall, G. I. Fann, S. A. Fischer, A. Fonari, H. Fruchtl, L. Gagliardi,
      J. Garza, N. Gawande, S. Ghosh, K. Glaesemann, A. W. Gotz, J. Hammond,
       V. Helms, E. D. Hermes, K. Hirao, S. Hirata, M. Jacquelin, L. Jensen,
   B. G. Johnson, H. Jonsson, R. A. Kendall, M. Klemm, R. Kobayashi, V. Konkov,
      S. Krishnamoorthy, M. Krishnan, Z. Lin, R. D. Lins, R. J. Littlefield,
      A. J. Logsdail, K. Lopata, W. Ma, A. V. Marenich, J. Martin del Campo,
   D. Mejia-Rodriguez, J. E. Moore, J. M. Mullin, T. Nakajima, D. R. Nascimento,
    J. A. Nichols, P. J. Nichols, J. Nieplocha, A. Otero-de-la-Roza, B. Palmer,
    A. Panyala, T. Pirojsirikul, B. Peng, R. Peverati, J. Pittner, L. Pollack,
   R. M. Richard, P. Sadayappan, G. C. Schatz, W. A. Shelton, D. W. Silverstein,
   D. M. A. Smith, T. A. Soares, D. Song, M. Swart, H. L. Taylor, G. S. Thomas,
            V. Tipparaju, D. G. Truhlar, K. Tsemekhman, T. Van Voorhis,
      A. Vazquez-Mayagoitia, P. Verma, O. Villa, A. Vishnu, K. D. Vogiatzis,
        D. Wang, J. H. Weare, M. J. Williamson, T. L. Windus, K. Wolinski,
        A. T. Wong, Q. Wu, C. Yang, Q. Yu, M. Zacharias, Z. Zhang, Y. Zhao,
                                and R. J. Harrison
                        "NWChem: Past, present, and future
                         J. Chem. Phys. 152, 184102 (2020)
                               doi:10.1063/5.0004997

                                      AUTHORS
                                      -------
  E. Apra, E. J. Bylaska, N. Govind, K. Kowalski, M. Valiev, D. Mejia-Rodriguez,
       A. Kunitsa, N. P. Bauman, A. Panyala, W. A. de Jong, T. P. Straatsma,
   H. J. J. van Dam, D. Wang, T. L. Windus, J. Hammond, J. Autschbach, A. Woods,
    K. Bhaskaran-Nair, J. Brabec, K. Lopata, S. A. Fischer, S. Krishnamoorthy,
     M. Jacquelin, W. Ma, M. Klemm, O. Villa, Y. Chen, V. Anisimov, F. Aquino,
     S. Hirata, M. T. Hackler, E. Hermes, L. Jensen, J. E. Moore, J. C. Becca,
      V. Konjkov, T. Risthaus, M. Malagoli, A. Marenich, A. Otero-de-la-Roza,
        J. Mullin, P. Nichols, R. Peverati, J. Pittner, Y. Zhao, P.-D. Fan,
        A. Fonari, M. J. Williamson, R. J. Harrison, J. R. Rehr, M. Dupuis,
     D. Silverstein, D. M. A. Smith, J. Nieplocha, V. Tipparaju, M. Krishnan,
     B. E. Van Kuiken, A. Vazquez-Mayagoitia, M. Swart, Q. Wu, T. Van Voorhis,
     A. A. Auer, M. Nooijen, L. D. Crosby, E. Brown, G. Cisneros, G. I. Fann,
   H. Fruchtl, J. Garza, K. Hirao, R. A. Kendall, J. A. Nichols, K. Tsemekhman,
    K. Wolinski, J. Anchell, D. E. Bernholdt, P. Borowski, T. Clark, D. Clerc,
   H. Dachsel, M. J. O. Deegan, K. Dyall, D. Elwood, E. Glendening, M. Gutowski,
   A. C. Hess, J. Jaffe, B. G. Johnson, J. Ju, R. Kobayashi, R. Kutteh, Z. Lin,
   R. Littlefield, X. Long, B. Meng, T. Nakajima, S. Niu, L. Pollack, M. Rosing,
   K. Glaesemann, G. Sandrone, M. Stave, H. Taylor, G. Thomas, J. H. van Lenthe,
                               A. T. Wong, Z. Zhang.

 Total times  cpu:     2788.2s     wall:     2788.2s
