 argument  1 = nwchem.in
  NWChem w/ OpenMP: maximum threads =    1
                                         
                                         


             Northwest Computational Chemistry Package (NWChem) 7.2.3
             --------------------------------------------------------


                    Environmental Molecular Sciences Laboratory
                       Pacific Northwest National Laboratory
                                Richland, WA 99352

                              Copyright (c) 1994-2022
                       Pacific Northwest National Laboratory
                            Battelle Memorial Institute

             NWChem is an open-source computational chemistry package
                        distributed under the terms of the
                      Educational Community License (ECL) 2.0
             A copy of the license is included with this distribution
                              in the LICENSE.TXT file

                                  ACKNOWLEDGMENT
                                  --------------

            This software and its documentation were developed at the
            EMSL at Pacific Northwest National Laboratory, a multiprogram
            national laboratory, operated for the U.S. Department of Energy
            by Battelle under Contract Number DE-AC05-76RL01830. Support
            for this work was provided by the Department of Energy Office
            of Biological and Environmental Research, Office of Basic
            Energy Sciences, and the Office of Advanced Scientific Computing.


           Job information
           ---------------

    hostname        = 80aa37db05da
    program         = nwchem
    date            = Thu Jul  3 00:51:09 2025

    compiled        = Fri_May_02_22:05:35_2025
    source          = /opt/nwchem
    nwchem branch   = 7.2.3
    nwchem revision = N/A
    ga revision     = 5.9.1
    use scalapack   = T
    input           = nwchem.in
    prefix          = ni_singlepoint.
    data base       = ./ni_singlepoint.db
    status          = startup
    nproc           =        5
    time left       =     -1s



           Memory information
           ------------------

    heap     =    509724444 doubles =     3888.9 Mbytes
    stack    =    509724445 doubles =     3888.9 Mbytes
    global   =    291271111 doubles =     2222.2 Mbytes (distinct from heap & stack)
    total    =   1310720000 doubles =    10000.0 Mbytes
    verify   = yes
    hardfail = no 


           Directory information
           ---------------------

  0 permanent = .
  0 scratch   = .




                                NWChem Input Module
                                -------------------


                          Ni complex single-point energy
                          ------------------------------

 Scaling coordinates for geometry "geometry" by  1.889725989
 (inverse scale =  0.529177249)

 C1  symmetry detected

          ------
          auto-z
          ------
  no constraints, skipping    0.0000000000000000     
  no constraints, skipping    0.0000000000000000     


                             Geometry "geometry" -> ""
                             -------------------------

 Output coordinates in angstroms (scale by  1.889725989 to convert to a.u.)

  No.       Tag          Charge          X              Y              Z
 ---- ---------------- ---------- -------------- -------------- --------------
    1 C                    6.0000     1.45946219     0.67417209    -1.24681952
    2 O                    8.0000     1.34061201     1.36535024    -2.23295524
    3 Ni                  28.0000     0.10602190    -0.44987767    -0.73676316
    4 C                    6.0000    -1.21585036     0.41840665     0.30791277
    5 N                    7.0000    -2.14833135    -0.36410138     0.88183518
    6 N                    7.0000    -1.57354334     1.68421273     0.53329036
    7 C                    6.0000    -3.18718388     0.37117214     1.60385949
    8 C                    6.0000    -2.04995973    -1.78841226     0.88540930
    9 C                    6.0000    -2.87290607     1.81619536     1.20297153
   10 C                    6.0000    -0.85552621     2.83467588     0.08223750
   11 H                    1.0000    -4.18076563     0.04965853     1.28757718
   12 H                    1.0000    -3.10103830     0.20402230     2.68129292
   13 C                    6.0000    -2.62252854    -2.50560983    -0.17100175
   14 C                    6.0000    -1.37953318    -2.42185553     1.93862436
   15 H                    1.0000    -3.60974074     2.22368629     0.50610776
   16 H                    1.0000    -2.80053101     2.49151561     2.05581993
   17 C                    6.0000    -0.03033691     3.49514422     0.99638176
   18 C                    6.0000    -1.01980466     3.27277111    -1.23481690
   19 C                    6.0000    -2.47520611    -3.88898520    -0.17408624
   20 C                    6.0000    -3.40517938    -1.82042785    -1.27387423
   21 C                    6.0000    -1.26977917    -3.80685719     1.90159205
   22 C                    6.0000    -0.78980023    -1.64131845     3.09679390
   23 C                    6.0000     0.67337205     4.60758140     0.55008114
   24 C                    6.0000     0.09766052     3.04559747     2.43970442
   25 C                    6.0000    -0.29533623     4.38780672    -1.63724749
   26 C                    6.0000    -1.99074057     2.60299047    -2.18852535
   27 C                    6.0000    -1.80248920    -4.53390701     0.84922949
   28 H                    1.0000    -2.89227294    -4.46847314    -0.98840588
   29 C                    6.0000    -4.87751095    -2.23853572    -1.22594912
   30 C                    6.0000    -2.79593999    -2.08872912    -2.64995182
   31 H                    1.0000    -3.35709552    -0.74374432    -1.09908184
   32 H                    1.0000    -0.74709501    -4.32312930     2.69759352
   33 C                    6.0000     0.70465536    -1.91602587     3.26014566
   34 C                    6.0000    -1.54881177    -1.94421820     4.39116929
   35 H                    1.0000    -0.89819438    -0.57708437     2.87756477
   36 C                    6.0000     0.54778112     5.04551550    -0.75711882
   37 H                    1.0000     1.33110310     5.13293508     1.23199653
   38 C                    6.0000    -0.44159824     4.11317050     3.39579352
   39 C                    6.0000     1.53936139     2.67856206     2.78729743
   40 H                    1.0000    -0.50520397     2.14331648     2.56714893
   41 H                    1.0000    -0.38482093     4.74206740    -2.65603761
   42 C                    6.0000    -1.38823897     2.34522372    -3.56932332
   43 C                    6.0000    -3.26529163     3.44500942    -2.31461487
   44 H                    1.0000    -2.25973425     1.63228342    -1.76533213
   45 H                    1.0000    -1.69071935    -5.61041263     0.82628089
   46 H                    1.0000    -5.31781402    -2.03407868    -0.24791222
   47 H                    1.0000    -4.98769133    -3.30709925    -1.42123960
   48 H                    1.0000    -5.45252572    -1.69908644    -1.98056649
   49 H                    1.0000    -1.75157417    -1.77180561    -2.68556258
   50 H                    1.0000    -3.34710131    -1.54661362    -3.42064883
   51 H                    1.0000    -2.83401614    -3.15136235    -2.89859024
   52 H                    1.0000     1.24279803    -1.69572874     2.33885663
   53 H                    1.0000     0.89191086    -2.95998844     3.51956558
   54 H                    1.0000     1.11915504    -1.29434392     4.05597173
   55 H                    1.0000    -2.61653287    -1.74106692     4.28719999
   56 H                    1.0000    -1.16130634    -1.34026267     5.21346905
   57 H                    1.0000    -1.43895004    -2.99539506     4.66596282
   58 H                    1.0000     1.10920292     5.90846381    -1.09242197
   59 H                    1.0000    -1.47630511     4.37610084     3.16618428
   60 H                    1.0000     0.15176366     5.02740026     3.33094674
   61 H                    1.0000    -0.39684750     3.75986101     4.42794502
   62 H                    1.0000     1.92008257     1.90820244     2.11796466
   63 H                    1.0000     1.60097745     2.30829944     3.81322604
   64 H                    1.0000     2.19705942     3.54637975     2.70594774
   65 H                    1.0000    -0.44342978     1.81311265    -3.48272140
   66 H                    1.0000    -1.20885502     3.28075359    -4.10383367
   67 H                    1.0000    -2.08305786     1.75544604    -4.17121462
   68 H                    1.0000    -3.73141212     3.63498244    -1.34574379
   69 H                    1.0000    -3.99315941     2.94426366    -2.95627284
   70 H                    1.0000    -3.03318031     4.41420305    -2.76196802
   71 N                    7.0000     1.23867392    -1.36908545    -1.86442491
   72 C                    6.0000     4.72533683     1.42997702     1.40785276
   73 C                    6.0000     4.39412834     2.32135855     0.39588233
   74 H                    1.0000     4.29984728    -0.47063609     2.30932951
   75 C                    6.0000     4.03719586     0.22892528     1.52507860
   76 C                    6.0000     3.36642196     2.01959983    -0.48120143
   77 C                    6.0000     2.65175282     0.83373550    -0.34704468
   78 C                    6.0000     2.99998981    -0.06833230     0.65232067
   79 H                    1.0000     3.07874609     2.69541157    -1.27566892
   80 H                    1.0000     2.46711772    -1.00445327     0.74692204
   81 H                    1.0000     5.51579100     1.67419849     2.10630776
   82 H                    1.0000     4.92784819     3.25785997     0.29580774
   83 C                    6.0000     2.09269541    -2.37323384    -1.42538575
   84 C                    6.0000     3.35579906    -2.60045227    -1.98744964
   85 C                    6.0000     1.67274084    -3.21508244    -0.39091817
   86 C                    6.0000     4.13667814    -3.66178557    -1.55672439
   87 H                    1.0000     3.72762367    -1.93361890    -2.75569589
   88 C                    6.0000     2.45794933    -4.26863516     0.04047610
   89 H                    1.0000     0.68916538    -3.04336603     0.03539290
   90 C                    6.0000     3.69251341    -4.50938971    -0.54958291
   91 H                    1.0000     5.10469220    -3.83038304    -2.01352937
   92 H                    1.0000     2.08582402    -4.92381152     0.81897005
   93 H                    1.0000     4.29574403    -5.35005775    -0.23454998
   94 C                    6.0000     1.07417512    -1.26052498    -3.30092257
   95 H                    1.0000     1.99904591    -1.05285770    -3.84942376
   96 H                    1.0000     0.65289373    -2.19735534    -3.68359212
   97 H                    1.0000     0.38076957    -0.45325201    -3.52876369

      Atomic Mass 
      ----------- 

      C                 12.000000
      O                 15.994910
      Ni                57.935300
      N                 14.003070
      H                  1.007825


 Effective nuclear repulsion energy (a.u.)    7262.1102093085

            Nuclear Dipole moment (a.u.) 
            ----------------------------
        X                 Y               Z
 ---------------- ---------------- ----------------
     0.0000000000     0.0000000000    -0.0000000000



                                Z-matrix (autoz)
                                -------- 

 Units are Angstrom for bonds and degrees for angles

      Type          Name      I     J     K     L     M      Value
      ----------- --------  ----- ----- ----- ----- ----- ----------
    1 Stretch                  1     2                       1.21009
    2 Stretch                  1     3                       1.83179
    3 Stretch                  1    77                       1.50220
    4 Stretch                  3     4                       1.89542
    5 Stretch                  3    71                       1.84376
    6 Stretch                  4     5                       1.34582
    7 Stretch                  4     6                       1.33454
    8 Stretch                  5     7                       1.46327
    9 Stretch                  5     8                       1.42771
   10 Stretch                  6     9                       1.46773
   11 Stretch                  6    10                       1.42918
   12 Stretch                  7     9                       1.53218
   13 Stretch                  7    11                       1.09115
   14 Stretch                  7    12                       1.09372
   15 Stretch                  8    13                       1.39936
   16 Stretch                  8    14                       1.39999
   17 Stretch                  9    15                       1.09297
   18 Stretch                  9    16                       1.09025
   19 Stretch                 10    17                       1.39743
   20 Stretch                 10    18                       1.39769
   21 Stretch                 13    19                       1.39120
   22 Stretch                 13    20                       1.51603
   23 Stretch                 14    21                       1.38984
   24 Stretch                 14    22                       1.51604
   25 Stretch                 17    23                       1.38993
   26 Stretch                 17    24                       1.51712
   27 Stretch                 18    25                       1.38928
   28 Stretch                 18    26                       1.51687
   29 Stretch                 19    27                       1.38407
   30 Stretch                 19    28                       1.08299
   31 Stretch                 20    29                       1.53130
   32 Stretch                 20    30                       1.52864
   33 Stretch                 20    31                       1.09184
   34 Stretch                 21    27                       1.38559
   35 Stretch                 21    32                       1.08321
   36 Stretch                 22    33                       1.52825
   37 Stretch                 22    34                       1.53077
   38 Stretch                 22    35                       1.09197
   39 Stretch                 23    36                       1.38432
   40 Stretch                 23    37                       1.08334
   41 Stretch                 24    38                       1.53121
   42 Stretch                 24    39                       1.52776
   43 Stretch                 24    40                       1.09261
   44 Stretch                 25    36                       1.38494
   45 Stretch                 25    41                       1.08233
   46 Stretch                 26    42                       1.52842
   47 Stretch                 26    43                       1.53277
   48 Stretch                 26    44                       1.09258
   49 Stretch                 27    45                       1.08254
   50 Stretch                 29    46                       1.09189
   51 Stretch                 29    47                       1.09184
   52 Stretch                 29    48                       1.09137
   53 Stretch                 30    49                       1.09197
   54 Stretch                 30    50                       1.09162
   55 Stretch                 30    51                       1.09200
   56 Stretch                 33    52                       1.08945
   57 Stretch                 33    53                       1.09189
   58 Stretch                 33    54                       1.09162
   59 Stretch                 34    55                       1.09184
   60 Stretch                 34    56                       1.09138
   61 Stretch                 34    57                       1.09204
   62 Stretch                 36    58                       1.08273
   63 Stretch                 38    59                       1.09200
   64 Stretch                 38    60                       1.09183
   65 Stretch                 38    61                       1.09186
   66 Stretch                 39    62                       1.08922
   67 Stretch                 39    63                       1.09244
   68 Stretch                 39    64                       1.09192
   69 Stretch                 42    65                       1.08780
   70 Stretch                 42    66                       1.09229
   71 Stretch                 42    67                       1.09219
   72 Stretch                 43    68                       1.09182
   73 Stretch                 43    69                       1.09191
   74 Stretch                 43    70                       1.09240
   75 Stretch                 71    83                       1.38940
   76 Stretch                 71    94                       1.44996
   77 Stretch                 72    73                       1.38865
   78 Stretch                 72    75                       1.38917
   79 Stretch                 72    81                       1.08273
   80 Stretch                 73    76                       1.38438
   81 Stretch                 73    82                       1.08255
   82 Stretch                 74    75                       1.08325
   83 Stretch                 75    78                       1.38776
   84 Stretch                 76    77                       1.39105
   85 Stretch                 76    79                       1.08197
   86 Stretch                 77    78                       1.39058
   87 Stretch                 78    80                       1.08131
   88 Stretch                 83    84                       1.40106
   89 Stretch                 83    85                       1.39828
   90 Stretch                 84    86                       1.38626
   91 Stretch                 84    87                       1.08311
   92 Stretch                 85    88                       1.38298
   93 Stretch                 85    89                       1.08566
   94 Stretch                 86    90                       1.38926
   95 Stretch                 86    91                       1.08358
   96 Stretch                 88    90                       1.38935
   97 Stretch                 88    92                       1.08341
   98 Stretch                 90    93                       1.08160
   99 Stretch                 94    95                       1.09516
  100 Stretch                 94    96                       1.09616
  101 Stretch                 94    97                       1.08831
  102 Bend                     1     3     4               112.80838
  103 Bend                     1     3    71                71.44180
  104 Bend                     1    77    76               116.13934
  105 Bend                     1    77    78               124.07765
  106 Bend                     2     1     3               120.32088
  107 Bend                     2     1    77               120.35797
  108 Bend                     3     1    77               119.00136
  109 Bend                     3     4     5               116.86559
  110 Bend                     3     4     6               135.60258
  111 Bend                     3    71    83               123.00082
  112 Bend                     3    71    94               119.92792
  113 Bend                     4     3    71               173.66970
  114 Bend                     4     5     7               114.21528
  115 Bend                     4     5     8               122.23414
  116 Bend                     4     6     9               113.55483
  117 Bend                     4     6    10               125.13914
  118 Bend                     5     4     6               107.08333
  119 Bend                     5     7     9               101.48870
  120 Bend                     5     7    11               110.81688
  121 Bend                     5     7    12               110.69371
  122 Bend                     5     8    13               118.76486
  123 Bend                     5     8    14               119.09528
  124 Bend                     6     9     7               102.48368
  125 Bend                     6     9    15               109.84251
  126 Bend                     6     9    16               110.72285
  127 Bend                     6    10    17               118.07786
  128 Bend                     6    10    18               119.38385
  129 Bend                     7     5     8               123.29654
  130 Bend                     7     9    15               112.34355
  131 Bend                     7     9    16               113.14921
  132 Bend                     8    13    19               117.90324
  133 Bend                     8    13    20               121.92322
  134 Bend                     8    14    21               117.94726
  135 Bend                     8    14    22               121.87346
  136 Bend                     9     6    10               121.08966
  137 Bend                     9     7    11               112.88173
  138 Bend                     9     7    12               112.68889
  139 Bend                    10    17    23               117.85208
  140 Bend                    10    17    24               122.14825
  141 Bend                    10    18    25               117.59585
  142 Bend                    10    18    26               121.95772
  143 Bend                    11     7    12               108.19395
  144 Bend                    13     8    14               122.13894
  145 Bend                    13    19    27               120.87523
  146 Bend                    13    19    28               119.53515
  147 Bend                    13    20    29               110.49955
  148 Bend                    13    20    30               111.70281
  149 Bend                    13    20    31               107.84772
  150 Bend                    14    21    27               120.84881
  151 Bend                    14    21    32               119.56942
  152 Bend                    14    22    33               111.68503
  153 Bend                    14    22    34               110.56164
  154 Bend                    14    22    35               108.04644
  155 Bend                    15     9    16               108.21404
  156 Bend                    17    10    18               122.52598
  157 Bend                    17    23    36               120.69521
  158 Bend                    17    23    37               119.56398
  159 Bend                    17    24    38               110.96024
  160 Bend                    17    24    39               111.54649
  161 Bend                    17    24    40               108.00590
  162 Bend                    18    25    36               120.96594
  163 Bend                    18    25    41               119.48846
  164 Bend                    18    26    42               112.96413
  165 Bend                    18    26    43               109.96314
  166 Bend                    18    26    44               107.84021
  167 Bend                    19    13    20               120.16367
  168 Bend                    19    27    21               120.25903
  169 Bend                    19    27    45               119.85949
  170 Bend                    20    29    46               111.38462
  171 Bend                    20    29    47               111.01736
  172 Bend                    20    29    48               110.48635
  173 Bend                    20    30    49               111.07500
  174 Bend                    20    30    50               110.31344
  175 Bend                    20    30    51               111.21485
  176 Bend                    21    14    22               120.17865
  177 Bend                    21    27    45               119.88140
  178 Bend                    22    33    52               110.87302
  179 Bend                    22    33    53               111.40531
  180 Bend                    22    33    54               110.29590
  181 Bend                    22    34    55               111.56452
  182 Bend                    22    34    56               110.58181
  183 Bend                    22    34    57               110.69304
  184 Bend                    23    17    24               119.99463
  185 Bend                    23    36    25               120.33747
  186 Bend                    23    36    58               119.83653
  187 Bend                    24    38    59               111.73300
  188 Bend                    24    38    60               110.81295
  189 Bend                    24    38    61               110.50032
  190 Bend                    24    39    62               111.09707
  191 Bend                    24    39    63               110.38454
  192 Bend                    24    39    64               111.13184
  193 Bend                    25    18    26               120.40146
  194 Bend                    25    36    58               119.82573
  195 Bend                    26    42    65               110.66830
  196 Bend                    26    42    66               111.24636
  197 Bend                    26    42    67               109.76435
  198 Bend                    26    43    68               112.18419
  199 Bend                    26    43    69               110.53116
  200 Bend                    26    43    70               110.14470
  201 Bend                    27    19    28               119.58962
  202 Bend                    27    21    32               119.57431
  203 Bend                    29    20    30               111.31239
  204 Bend                    29    20    31               107.85354
  205 Bend                    30    20    31               107.43600
  206 Bend                    33    22    34               111.03403
  207 Bend                    33    22    35               107.08054
  208 Bend                    34    22    35               108.26361
  209 Bend                    36    23    37               119.73985
  210 Bend                    36    25    41               119.54339
  211 Bend                    38    24    39               110.96377
  212 Bend                    38    24    40               107.97517
  213 Bend                    39    24    40               107.20266
  214 Bend                    42    26    43               110.25024
  215 Bend                    42    26    44               107.28592
  216 Bend                    43    26    44               108.37338
  217 Bend                    46    29    47               107.62465
  218 Bend                    46    29    48               108.32007
  219 Bend                    47    29    48               107.87295
  220 Bend                    49    30    50               108.40497
  221 Bend                    49    30    51               107.95970
  222 Bend                    50    30    51               107.75228
  223 Bend                    52    33    53               108.03134
  224 Bend                    52    33    54               108.28732
  225 Bend                    53    33    54               107.82903
  226 Bend                    55    34    56               108.42122
  227 Bend                    55    34    57               107.54429
  228 Bend                    56    34    57               107.90069
  229 Bend                    59    38    60               107.50808
  230 Bend                    59    38    61               108.39174
  231 Bend                    60    38    61               107.74725
  232 Bend                    62    39    63               108.52183
  233 Bend                    62    39    64               107.80528
  234 Bend                    63    39    64               107.78003
  235 Bend                    65    42    66               108.37766
  236 Bend                    65    42    67               109.40681
  237 Bend                    66    42    67               107.29555
  238 Bend                    68    43    69               108.46241
  239 Bend                    68    43    70               107.44189
  240 Bend                    69    43    70               107.93046
  241 Bend                    71    83    84               122.99648
  242 Bend                    71    83    85               118.96593
  243 Bend                    71    94    95               114.49297
  244 Bend                    71    94    96               108.99425
  245 Bend                    71    94    97               109.58667
  246 Bend                    72    73    76               119.92348
  247 Bend                    72    73    82               120.33690
  248 Bend                    72    75    74               119.95579
  249 Bend                    72    75    78               120.15589
  250 Bend                    73    72    75               119.88925
  251 Bend                    73    72    81               119.96312
  252 Bend                    73    76    77               120.40535
  253 Bend                    73    76    79               121.76504
  254 Bend                    74    75    78               119.88102
  255 Bend                    75    72    81               120.14703
  256 Bend                    75    78    77               120.01218
  257 Bend                    75    78    80               119.91664
  258 Bend                    76    73    82               119.73556
  259 Bend                    76    77    78               119.58156
  260 Bend                    77    76    79               117.81998
  261 Bend                    77    78    80               120.07023
  262 Bend                    83    71    94               115.90665
  263 Bend                    83    84    86               120.48730
  264 Bend                    83    84    87               119.61660
  265 Bend                    83    85    88               121.25843
  266 Bend                    83    85    89               117.86415
  267 Bend                    84    83    85               118.02872
  268 Bend                    84    86    90               120.81450
  269 Bend                    84    86    91               119.42988
  270 Bend                    85    88    90               120.26800
  271 Bend                    85    88    92               119.32827
  272 Bend                    86    84    87               119.89208
  273 Bend                    86    90    88               119.09493
  274 Bend                    86    90    93               120.46741
  275 Bend                    88    85    89               120.82291
  276 Bend                    88    90    93               120.43578
  277 Bend                    90    86    91               119.75560
  278 Bend                    90    88    92               120.37056
  279 Bend                    95    94    96               108.16675
  280 Bend                    95    94    97               107.01144
  281 Bend                    96    94    97               108.42101
  282 Torsion                  1     3     4     5        -171.04556
  283 Torsion                  1     3     4     6          17.83000
  284 Torsion                  1     3    71    83         108.37761
  285 Torsion                  1     3    71    94         -84.46853
  286 Torsion                  1    77    76    73         173.23556
  287 Torsion                  1    77    76    79          -5.65583
  288 Torsion                  1    77    78    75        -173.34467
  289 Torsion                  1    77    78    80           7.01055
  290 Torsion                  2     1     3     4         -84.46864
  291 Torsion                  2     1     3    71          90.51497
  292 Torsion                  2     1    77    76          17.75938
  293 Torsion                  2     1    77    78        -167.43594
  294 Torsion                  3     1    77    76        -155.76831
  295 Torsion                  3     1    77    78          19.03638
  296 Torsion                  3     4     5     7        -176.33873
  297 Torsion                  3     4     5     8           9.27556
  298 Torsion                  3     4     6     9         166.85715
  299 Torsion                  3     4     6    10          -7.82189
  300 Torsion                  3    71    83    84        -146.04231
  301 Torsion                  3    71    83    85          35.06333
  302 Torsion                  3    71    94    95         131.61211
  303 Torsion                  3    71    94    96        -107.11191
  304 Torsion                  3    71    94    97          11.39068
  305 Torsion                  4     3     1    77          89.06150
  306 Torsion                  4     3    71    83        -118.59524
  307 Torsion                  4     3    71    94          48.55862
  308 Torsion                  4     5     7     9           8.57107
  309 Torsion                  4     5     7    11         128.68793
  310 Torsion                  4     5     7    12        -111.26597
  311 Torsion                  4     5     8    13         -90.22316
  312 Torsion                  4     5     8    14          89.43642
  313 Torsion                  4     6     9     7           9.86947
  314 Torsion                  4     6     9    15        -109.72341
  315 Torsion                  4     6     9    16         130.81734
  316 Torsion                  4     6    10    17        -100.34690
  317 Torsion                  4     6    10    18          80.89629
  318 Torsion                  5     4     3    71          57.70130
  319 Torsion                  5     4     6     9          -4.86409
  320 Torsion                  5     4     6    10        -179.54313
  321 Torsion                  5     7     9     6         -10.12728
  322 Torsion                  5     7     9    15         107.70425
  323 Torsion                  5     7     9    16        -129.38967
  324 Torsion                  5     8    13    19         177.76823
  325 Torsion                  5     8    13    20          -3.37343
  326 Torsion                  5     8    14    21        -178.46954
  327 Torsion                  5     8    14    22           1.82057
  328 Torsion                  6     4     3    71        -113.42314
  329 Torsion                  6     4     5     7          -2.82285
  330 Torsion                  6     4     5     8        -177.20856
  331 Torsion                  6     9     7    11        -128.77359
  332 Torsion                  6     9     7    12         108.28528
  333 Torsion                  6    10    17    23         179.53580
  334 Torsion                  6    10    17    24          -1.28140
  335 Torsion                  6    10    18    25        -179.46143
  336 Torsion                  6    10    18    26           2.96982
  337 Torsion                  7     5     8    13          95.90464
  338 Torsion                  7     5     8    14         -84.43578
  339 Torsion                  7     9     6    10        -175.21099
  340 Torsion                  8     5     7     9        -177.11084
  341 Torsion                  8     5     7    11         -56.99398
  342 Torsion                  8     5     7    12          63.05211
  343 Torsion                  8    13    19    27           1.08076
  344 Torsion                  8    13    19    28        -178.89546
  345 Torsion                  8    13    20    29        -114.09323
  346 Torsion                  8    13    20    30         121.40494
  347 Torsion                  8    13    20    31           3.56797
  348 Torsion                  8    14    21    27           0.34587
  349 Torsion                  8    14    21    32         179.34803
  350 Torsion                  8    14    22    33        -123.44557
  351 Torsion                  8    14    22    34         112.38096
  352 Torsion                  8    14    22    35          -5.92941
  353 Torsion                  9     6    10    17          85.35005
  354 Torsion                  9     6    10    18         -93.40676
  355 Torsion                 10     6     9    15          65.19613
  356 Torsion                 10     6     9    16         -54.26312
  357 Torsion                 10    17    23    36           0.42953
  358 Torsion                 10    17    23    37        -179.21151
  359 Torsion                 10    17    24    38        -115.44267
  360 Torsion                 10    17    24    39         120.28216
  361 Torsion                 10    17    24    40           2.72160
  362 Torsion                 10    18    25    36          -0.61896
  363 Torsion                 10    18    25    41         178.83769
  364 Torsion                 10    18    26    42        -134.29932
  365 Torsion                 10    18    26    43         102.06827
  366 Torsion                 10    18    26    44         -15.91443
  367 Torsion                 11     7     9    15         -10.94206
  368 Torsion                 11     7     9    16         111.96402
  369 Torsion                 12     7     9    15        -133.88319
  370 Torsion                 12     7     9    16         -10.97711
  371 Torsion                 13     8    14    21           1.17805
  372 Torsion                 13     8    14    22        -178.53184
  373 Torsion                 13    19    27    21           0.37851
  374 Torsion                 13    19    27    45        -179.51630
  375 Torsion                 13    20    29    46          56.09636
  376 Torsion                 13    20    29    47         -63.82381
  377 Torsion                 13    20    29    48         176.53779
  378 Torsion                 13    20    30    49         -57.02863
  379 Torsion                 13    20    30    50        -177.25767
  380 Torsion                 13    20    30    51          63.24055
  381 Torsion                 14     8    13    19          -1.88047
  382 Torsion                 14     8    13    20         176.97786
  383 Torsion                 14    21    27    19          -1.11650
  384 Torsion                 14    21    27    45         178.77830
  385 Torsion                 14    22    33    52          56.32520
  386 Torsion                 14    22    33    53         -64.02619
  387 Torsion                 14    22    33    54         176.26411
  388 Torsion                 14    22    34    55         -56.03802
  389 Torsion                 14    22    34    56        -176.79234
  390 Torsion                 14    22    34    57          63.68229
  391 Torsion                 17    10    18    25           1.83952
  392 Torsion                 17    10    18    26        -175.72923
  393 Torsion                 17    23    36    25           0.72924
  394 Torsion                 17    23    36    58        -179.45907
  395 Torsion                 17    24    38    59          56.10281
  396 Torsion                 17    24    38    60         -63.76445
  397 Torsion                 17    24    38    61         176.87718
  398 Torsion                 17    24    39    62         -56.59592
  399 Torsion                 17    24    39    63        -177.03342
  400 Torsion                 17    24    39    64          63.43707
  401 Torsion                 18    10    17    23          -1.74899
  402 Torsion                 18    10    17    24         177.43382
  403 Torsion                 18    25    36    23          -0.63132
  404 Torsion                 18    25    36    58         179.55697
  405 Torsion                 18    26    42    65          52.22430
  406 Torsion                 18    26    42    66         -68.32047
  407 Torsion                 18    26    42    67         173.08199
  408 Torsion                 18    26    43    68         -55.70382
  409 Torsion                 18    26    43    69        -176.89582
  410 Torsion                 18    26    43    70          63.92481
  411 Torsion                 19    13    20    29          64.73983
  412 Torsion                 19    13    20    30         -59.76200
  413 Torsion                 19    13    20    31        -177.59898
  414 Torsion                 19    27    21    32         179.88139
  415 Torsion                 20    13    19    27        -177.79849
  416 Torsion                 20    13    19    28           2.22529
  417 Torsion                 21    14    22    33          56.85089
  418 Torsion                 21    14    22    34         -67.32258
  419 Torsion                 21    14    22    35         174.36706
  420 Torsion                 21    27    19    28        -179.64527
  421 Torsion                 22    14    21    27        -179.93913
  422 Torsion                 22    14    21    32          -0.93696
  423 Torsion                 23    17    24    38          63.72307
  424 Torsion                 23    17    24    39         -60.55210
  425 Torsion                 23    17    24    40        -178.11266
  426 Torsion                 23    36    25    41         179.91233
  427 Torsion                 24    17    23    36        -178.77158
  428 Torsion                 24    17    23    37           1.58738
  429 Torsion                 25    18    26    42          48.19888
  430 Torsion                 25    18    26    43         -75.43353
  431 Torsion                 25    18    26    44         166.58378
  432 Torsion                 25    36    23    37        -179.63035
  433 Torsion                 26    18    25    36         176.98945
  434 Torsion                 26    18    25    41          -3.55390
  435 Torsion                 28    19    27    45           0.45991
  436 Torsion                 29    20    30    49         178.92515
  437 Torsion                 29    20    30    50          58.69611
  438 Torsion                 29    20    30    51         -60.80567
  439 Torsion                 30    20    29    46        -179.17891
  440 Torsion                 30    20    29    47          60.90092
  441 Torsion                 30    20    29    48         -58.73747
  442 Torsion                 31    20    29    46         -61.56127
  443 Torsion                 31    20    29    47         178.51856
  444 Torsion                 31    20    29    48          58.88016
  445 Torsion                 31    20    30    49          61.05501
  446 Torsion                 31    20    30    50         -59.17403
  447 Torsion                 31    20    30    51        -178.67581
  448 Torsion                 32    21    27    45          -0.22382
  449 Torsion                 33    22    34    55         179.41611
  450 Torsion                 33    22    34    56          58.66180
  451 Torsion                 33    22    34    57         -60.86358
  452 Torsion                 34    22    33    52        -179.76692
  453 Torsion                 34    22    33    53          59.88169
  454 Torsion                 34    22    33    54         -59.82801
  455 Torsion                 35    22    33    52         -61.77068
  456 Torsion                 35    22    33    53         177.87793
  457 Torsion                 35    22    33    54          58.16823
  458 Torsion                 35    22    34    55          62.13977
  459 Torsion                 35    22    34    56         -58.61454
  460 Torsion                 35    22    34    57        -178.13991
  461 Torsion                 37    23    36    58           0.18134
  462 Torsion                 38    24    39    62         179.13089
  463 Torsion                 38    24    39    63          58.69339
  464 Torsion                 38    24    39    64         -60.83612
  465 Torsion                 39    24    38    59        -179.29148
  466 Torsion                 39    24    38    60          60.84127
  467 Torsion                 39    24    38    61         -58.51711
  468 Torsion                 40    24    38    59         -62.08009
  469 Torsion                 40    24    38    60         178.05265
  470 Torsion                 40    24    38    61          58.69428
  471 Torsion                 40    24    39    62          61.44800
  472 Torsion                 40    24    39    63         -58.98950
  473 Torsion                 40    24    39    64        -178.51901
  474 Torsion                 41    25    36    58           0.10062
  475 Torsion                 42    26    43    68         179.09472
  476 Torsion                 42    26    43    69          57.90272
  477 Torsion                 42    26    43    70         -61.27665
  478 Torsion                 43    26    42    65         175.69824
  479 Torsion                 43    26    42    66          55.15347
  480 Torsion                 43    26    42    67         -63.44407
  481 Torsion                 44    26    42    65         -66.48309
  482 Torsion                 44    26    42    66         172.97213
  483 Torsion                 44    26    42    67          54.37460
  484 Torsion                 44    26    43    68          61.94846
  485 Torsion                 44    26    43    69         -59.24354
  486 Torsion                 44    26    43    70        -178.42291
  487 Torsion                 71     3     1    77         -95.95488
  488 Torsion                 71    83    84    86        -176.57051
  489 Torsion                 71    83    84    87           4.15966
  490 Torsion                 71    83    85    88         176.93276
  491 Torsion                 71    83    85    89          -0.40298
  492 Torsion                 72    73    76    77           0.70133
  493 Torsion                 72    73    76    79         179.54811
  494 Torsion                 72    75    78    77           0.34002
  495 Torsion                 72    75    78    80         179.98535
  496 Torsion                 73    72    75    74         179.52259
  497 Torsion                 73    72    75    78          -1.46179
  498 Torsion                 73    76    77    78          -1.81693
  499 Torsion                 74    75    72    81          -0.75852
  500 Torsion                 74    75    78    77         179.35638
  501 Torsion                 74    75    78    80          -0.99828
  502 Torsion                 75    72    73    76           0.94109
  503 Torsion                 75    72    73    82        -179.79455
  504 Torsion                 75    78    77    76           1.29183
  505 Torsion                 76    73    72    81        -178.77832
  506 Torsion                 76    77    78    80        -178.35295
  507 Torsion                 77    76    73    82        -178.56748
  508 Torsion                 78    75    72    81         178.25710
  509 Torsion                 78    77    76    79         179.29168
  510 Torsion                 79    76    73    82           0.27930
  511 Torsion                 81    72    73    82           0.48604
  512 Torsion                 83    71    94    95         -60.35174
  513 Torsion                 83    71    94    96          60.92424
  514 Torsion                 83    71    94    97         179.42682
  515 Torsion                 83    84    86    90          -0.85686
  516 Torsion                 83    84    86    91         179.09825
  517 Torsion                 83    85    88    90           0.19834
  518 Torsion                 83    85    88    92        -177.71497
  519 Torsion                 84    83    71    94          46.32706
  520 Torsion                 84    83    85    88          -2.01673
  521 Torsion                 84    83    85    89        -179.35246
  522 Torsion                 84    86    90    88          -1.00401
  523 Torsion                 84    86    90    93         178.49914
  524 Torsion                 85    83    71    94        -132.56730
  525 Torsion                 85    83    84    86           2.33363
  526 Torsion                 85    83    84    87        -176.93621
  527 Torsion                 85    88    90    86           1.33134
  528 Torsion                 85    88    90    93        -178.17196
  529 Torsion                 86    90    88    92         179.22275
  530 Torsion                 87    84    86    90         178.41097
  531 Torsion                 87    84    86    91          -1.63392
  532 Torsion                 88    90    86    91         179.04103
  533 Torsion                 89    85    88    90         177.45552
  534 Torsion                 89    85    88    92          -0.45779
  535 Torsion                 91    86    90    93          -1.45582
  536 Torsion                 92    88    90    93          -0.28056


            XYZ format geometry
            -------------------
    97
 geometry
 C                     1.45946219     0.67417209    -1.24681952
 O                     1.34061201     1.36535024    -2.23295524
 Ni                    0.10602190    -0.44987767    -0.73676316
 C                    -1.21585036     0.41840665     0.30791277
 N                    -2.14833135    -0.36410138     0.88183518
 N                    -1.57354334     1.68421273     0.53329036
 C                    -3.18718388     0.37117214     1.60385949
 C                    -2.04995973    -1.78841226     0.88540930
 C                    -2.87290607     1.81619536     1.20297153
 C                    -0.85552621     2.83467588     0.08223750
 H                    -4.18076563     0.04965853     1.28757718
 H                    -3.10103830     0.20402230     2.68129292
 C                    -2.62252854    -2.50560983    -0.17100175
 C                    -1.37953318    -2.42185553     1.93862436
 H                    -3.60974074     2.22368629     0.50610776
 H                    -2.80053101     2.49151561     2.05581993
 C                    -0.03033691     3.49514422     0.99638176
 C                    -1.01980466     3.27277111    -1.23481690
 C                    -2.47520611    -3.88898520    -0.17408624
 C                    -3.40517938    -1.82042785    -1.27387423
 C                    -1.26977917    -3.80685719     1.90159205
 C                    -0.78980023    -1.64131845     3.09679390
 C                     0.67337205     4.60758140     0.55008114
 C                     0.09766052     3.04559747     2.43970442
 C                    -0.29533623     4.38780672    -1.63724749
 C                    -1.99074057     2.60299047    -2.18852535
 C                    -1.80248920    -4.53390701     0.84922949
 H                    -2.89227294    -4.46847314    -0.98840588
 C                    -4.87751095    -2.23853572    -1.22594912
 C                    -2.79593999    -2.08872912    -2.64995182
 H                    -3.35709552    -0.74374432    -1.09908184
 H                    -0.74709501    -4.32312930     2.69759352
 C                     0.70465536    -1.91602587     3.26014566
 C                    -1.54881177    -1.94421820     4.39116929
 H                    -0.89819438    -0.57708437     2.87756477
 C                     0.54778112     5.04551550    -0.75711882
 H                     1.33110310     5.13293508     1.23199653
 C                    -0.44159824     4.11317050     3.39579352
 C                     1.53936139     2.67856206     2.78729743
 H                    -0.50520397     2.14331648     2.56714893
 H                    -0.38482093     4.74206740    -2.65603761
 C                    -1.38823897     2.34522372    -3.56932332
 C                    -3.26529163     3.44500942    -2.31461487
 H                    -2.25973425     1.63228342    -1.76533213
 H                    -1.69071935    -5.61041263     0.82628089
 H                    -5.31781402    -2.03407868    -0.24791222
 H                    -4.98769133    -3.30709925    -1.42123960
 H                    -5.45252572    -1.69908644    -1.98056649
 H                    -1.75157417    -1.77180561    -2.68556258
 H                    -3.34710131    -1.54661362    -3.42064883
 H                    -2.83401614    -3.15136235    -2.89859024
 H                     1.24279803    -1.69572874     2.33885663
 H                     0.89191086    -2.95998844     3.51956558
 H                     1.11915504    -1.29434392     4.05597173
 H                    -2.61653287    -1.74106692     4.28719999
 H                    -1.16130634    -1.34026267     5.21346905
 H                    -1.43895004    -2.99539506     4.66596282
 H                     1.10920292     5.90846381    -1.09242197
 H                    -1.47630511     4.37610084     3.16618428
 H                     0.15176366     5.02740026     3.33094674
 H                    -0.39684750     3.75986101     4.42794502
 H                     1.92008257     1.90820244     2.11796466
 H                     1.60097745     2.30829944     3.81322604
 H                     2.19705942     3.54637975     2.70594774
 H                    -0.44342978     1.81311265    -3.48272140
 H                    -1.20885502     3.28075359    -4.10383367
 H                    -2.08305786     1.75544604    -4.17121462
 H                    -3.73141212     3.63498244    -1.34574379
 H                    -3.99315941     2.94426366    -2.95627284
 H                    -3.03318031     4.41420305    -2.76196802
 N                     1.23867392    -1.36908545    -1.86442491
 C                     4.72533683     1.42997702     1.40785276
 C                     4.39412834     2.32135855     0.39588233
 H                     4.29984728    -0.47063609     2.30932951
 C                     4.03719586     0.22892528     1.52507860
 C                     3.36642196     2.01959983    -0.48120143
 C                     2.65175282     0.83373550    -0.34704468
 C                     2.99998981    -0.06833230     0.65232067
 H                     3.07874609     2.69541157    -1.27566892
 H                     2.46711772    -1.00445327     0.74692204
 H                     5.51579100     1.67419849     2.10630776
 H                     4.92784819     3.25785997     0.29580774
 C                     2.09269541    -2.37323384    -1.42538575
 C                     3.35579906    -2.60045227    -1.98744964
 C                     1.67274084    -3.21508244    -0.39091817
 C                     4.13667814    -3.66178557    -1.55672439
 H                     3.72762367    -1.93361890    -2.75569589
 C                     2.45794933    -4.26863516     0.04047610
 H                     0.68916538    -3.04336603     0.03539290
 C                     3.69251341    -4.50938971    -0.54958291
 H                     5.10469220    -3.83038304    -2.01352937
 H                     2.08582402    -4.92381152     0.81897005
 H                     4.29574403    -5.35005775    -0.23454998
 C                     1.07417512    -1.26052498    -3.30092257
 H                     1.99904591    -1.05285770    -3.84942376
 H                     0.65289373    -2.19735534    -3.68359212
 H                     0.38076957    -0.45325201    -3.52876369

 ==============================================================================
                                internuclear distances
 ------------------------------------------------------------------------------
       center one      |      center two      | atomic units |  angstroms
 ------------------------------------------------------------------------------
    2 O                |   1 C                |     2.28674  |     1.21009
    3 Ni               |   1 C                |     3.46158  |     1.83179
    4 C                |   3 Ni               |     3.58182  |     1.89542
    5 N                |   4 C                |     2.54323  |     1.34582
    6 N                |   4 C                |     2.52192  |     1.33454
    7 C                |   5 N                |     2.76518  |     1.46327
    8 C                |   5 N                |     2.69798  |     1.42771
    9 C                |   6 N                |     2.77361  |     1.46773
    9 C                |   7 C                |     2.89540  |     1.53218
   10 C                |   6 N                |     2.70076  |     1.42918
   11 H                |   7 C                |     2.06198  |     1.09115
   12 H                |   7 C                |     2.06683  |     1.09372
   13 C                |   8 C                |     2.64441  |     1.39936
   14 C                |   8 C                |     2.64561  |     1.39999
   15 H                |   9 C                |     2.06542  |     1.09297
   16 H                |   9 C                |     2.06027  |     1.09025
   17 C                |  10 C                |     2.64076  |     1.39743
   18 C                |  10 C                |     2.64126  |     1.39769
   19 C                |  13 C                |     2.62899  |     1.39120
   20 C                |  13 C                |     2.86488  |     1.51603
   21 C                |  14 C                |     2.62641  |     1.38984
   22 C                |  14 C                |     2.86490  |     1.51604
   23 C                |  17 C                |     2.62659  |     1.38993
   24 C                |  17 C                |     2.86694  |     1.51712
   25 C                |  18 C                |     2.62537  |     1.38928
   26 C                |  18 C                |     2.86646  |     1.51687
   27 C                |  19 C                |     2.61551  |     1.38407
   27 C                |  21 C                |     2.61838  |     1.38559
   28 H                |  19 C                |     2.04655  |     1.08299
   29 C                |  20 C                |     2.89373  |     1.53130
   30 C                |  20 C                |     2.88872  |     1.52864
   31 H                |  20 C                |     2.06328  |     1.09184
   32 H                |  21 C                |     2.04698  |     1.08321
   33 C                |  22 C                |     2.88797  |     1.52825
   34 C                |  22 C                |     2.89273  |     1.53077
   35 H                |  22 C                |     2.06353  |     1.09197
   36 C                |  23 C                |     2.61598  |     1.38432
   36 C                |  25 C                |     2.61715  |     1.38494
   37 H                |  23 C                |     2.04721  |     1.08334
   38 C                |  24 C                |     2.89358  |     1.53121
   39 C                |  24 C                |     2.88704  |     1.52776
   40 H                |  24 C                |     2.06474  |     1.09261
   41 H                |  25 C                |     2.04531  |     1.08233
   42 C                |  26 C                |     2.88829  |     1.52842
   43 C                |  26 C                |     2.89651  |     1.53277
   44 H                |  26 C                |     2.06467  |     1.09258
   45 H                |  27 C                |     2.04570  |     1.08254
   46 H                |  29 C                |     2.06337  |     1.09189
   47 H                |  29 C                |     2.06327  |     1.09184
   48 H                |  29 C                |     2.06240  |     1.09137
   49 H                |  30 C                |     2.06353  |     1.09197
   50 H                |  30 C                |     2.06287  |     1.09162
   51 H                |  30 C                |     2.06358  |     1.09200
   52 H                |  33 C                |     2.05876  |     1.08945
   53 H                |  33 C                |     2.06337  |     1.09189
   54 H                |  33 C                |     2.06287  |     1.09162
   55 H                |  34 C                |     2.06327  |     1.09184
   56 H                |  34 C                |     2.06240  |     1.09138
   57 H                |  34 C                |     2.06366  |     1.09204
   58 H                |  36 C                |     2.04606  |     1.08273
   59 H                |  38 C                |     2.06359  |     1.09200
   60 H                |  38 C                |     2.06327  |     1.09183
   61 H                |  38 C                |     2.06332  |     1.09186
   62 H                |  39 C                |     2.05833  |     1.08922
   63 H                |  39 C                |     2.06441  |     1.09244
   64 H                |  39 C                |     2.06343  |     1.09192
   65 H                |  42 C                |     2.05564  |     1.08780
   66 H                |  42 C                |     2.06413  |     1.09229
   67 H                |  42 C                |     2.06394  |     1.09219
   68 H                |  43 C                |     2.06324  |     1.09182
   69 H                |  43 C                |     2.06341  |     1.09191
   70 H                |  43 C                |     2.06434  |     1.09240
   71 N                |   3 Ni               |     3.48421  |     1.84376
   73 C                |  72 C                |     2.62416  |     1.38865
   75 C                |  72 C                |     2.62516  |     1.38917
   75 C                |  74 H                |     2.04704  |     1.08325
   76 C                |  73 C                |     2.61610  |     1.38438
   77 C                |   1 C                |     2.83875  |     1.50220
   77 C                |  76 C                |     2.62871  |     1.39105
   78 C                |  75 C                |     2.62248  |     1.38776
   78 C                |  77 C                |     2.62782  |     1.39058
   79 H                |  76 C                |     2.04463  |     1.08197
   80 H                |  78 C                |     2.04337  |     1.08131
   81 H                |  72 C                |     2.04606  |     1.08273
   82 H                |  73 C                |     2.04572  |     1.08255
   83 C                |  71 N                |     2.62558  |     1.38940
   84 C                |  83 C                |     2.64762  |     1.40106
   85 C                |  83 C                |     2.64237  |     1.39828
   86 C                |  84 C                |     2.61966  |     1.38626
   87 H                |  84 C                |     2.04678  |     1.08311
   88 C                |  85 C                |     2.61345  |     1.38298
   89 H                |  85 C                |     2.05159  |     1.08566
   90 C                |  86 C                |     2.62532  |     1.38926
   90 C                |  88 C                |     2.62548  |     1.38935
   91 H                |  86 C                |     2.04767  |     1.08358
   92 H                |  88 C                |     2.04736  |     1.08341
   93 H                |  90 C                |     2.04393  |     1.08160
   94 C                |  71 N                |     2.74002  |     1.44996
   95 H                |  94 C                |     2.06954  |     1.09516
   96 H                |  94 C                |     2.07144  |     1.09616
   97 H                |  94 C                |     2.05660  |     1.08831
 ------------------------------------------------------------------------------
                         number of included internuclear distances:        101
 ==============================================================================



 ==============================================================================
                                 internuclear angles
 ------------------------------------------------------------------------------
        center 1       |       center 2       |       center 3       |  degrees
 ------------------------------------------------------------------------------
    2 O                |   1 C                |   3 Ni               |   120.32
    2 O                |   1 C                |  77 C                |   120.36
    3 Ni               |   1 C                |  77 C                |   119.00
    1 C                |   3 Ni               |   4 C                |   112.81
    1 C                |   3 Ni               |  71 N                |    71.44
    4 C                |   3 Ni               |  71 N                |   173.67
    3 Ni               |   4 C                |   5 N                |   116.87
    3 Ni               |   4 C                |   6 N                |   135.60
    5 N                |   4 C                |   6 N                |   107.08
    4 C                |   5 N                |   7 C                |   114.22
    4 C                |   5 N                |   8 C                |   122.23
    7 C                |   5 N                |   8 C                |   123.30
    4 C                |   6 N                |   9 C                |   113.55
    4 C                |   6 N                |  10 C                |   125.14
    9 C                |   6 N                |  10 C                |   121.09
    5 N                |   7 C                |   9 C                |   101.49
    5 N                |   7 C                |  11 H                |   110.82
    5 N                |   7 C                |  12 H                |   110.69
    9 C                |   7 C                |  11 H                |   112.88
    9 C                |   7 C                |  12 H                |   112.69
   11 H                |   7 C                |  12 H                |   108.19
    5 N                |   8 C                |  13 C                |   118.76
    5 N                |   8 C                |  14 C                |   119.10
   13 C                |   8 C                |  14 C                |   122.14
    6 N                |   9 C                |   7 C                |   102.48
    6 N                |   9 C                |  15 H                |   109.84
    6 N                |   9 C                |  16 H                |   110.72
    7 C                |   9 C                |  15 H                |   112.34
    7 C                |   9 C                |  16 H                |   113.15
   15 H                |   9 C                |  16 H                |   108.21
    6 N                |  10 C                |  17 C                |   118.08
    6 N                |  10 C                |  18 C                |   119.38
   17 C                |  10 C                |  18 C                |   122.53
    8 C                |  13 C                |  19 C                |   117.90
    8 C                |  13 C                |  20 C                |   121.92
   19 C                |  13 C                |  20 C                |   120.16
    8 C                |  14 C                |  21 C                |   117.95
    8 C                |  14 C                |  22 C                |   121.87
   21 C                |  14 C                |  22 C                |   120.18
   10 C                |  17 C                |  23 C                |   117.85
   10 C                |  17 C                |  24 C                |   122.15
   23 C                |  17 C                |  24 C                |   119.99
   10 C                |  18 C                |  25 C                |   117.60
   10 C                |  18 C                |  26 C                |   121.96
   25 C                |  18 C                |  26 C                |   120.40
   13 C                |  19 C                |  27 C                |   120.88
   13 C                |  19 C                |  28 H                |   119.54
   27 C                |  19 C                |  28 H                |   119.59
   13 C                |  20 C                |  29 C                |   110.50
   13 C                |  20 C                |  30 C                |   111.70
   13 C                |  20 C                |  31 H                |   107.85
   29 C                |  20 C                |  30 C                |   111.31
   29 C                |  20 C                |  31 H                |   107.85
   30 C                |  20 C                |  31 H                |   107.44
   14 C                |  21 C                |  27 C                |   120.85
   14 C                |  21 C                |  32 H                |   119.57
   27 C                |  21 C                |  32 H                |   119.57
   14 C                |  22 C                |  33 C                |   111.69
   14 C                |  22 C                |  34 C                |   110.56
   14 C                |  22 C                |  35 H                |   108.05
   33 C                |  22 C                |  34 C                |   111.03
   33 C                |  22 C                |  35 H                |   107.08
   34 C                |  22 C                |  35 H                |   108.26
   17 C                |  23 C                |  36 C                |   120.70
   17 C                |  23 C                |  37 H                |   119.56
   36 C                |  23 C                |  37 H                |   119.74
   17 C                |  24 C                |  38 C                |   110.96
   17 C                |  24 C                |  39 C                |   111.55
   17 C                |  24 C                |  40 H                |   108.01
   38 C                |  24 C                |  39 C                |   110.96
   38 C                |  24 C                |  40 H                |   107.98
   39 C                |  24 C                |  40 H                |   107.20
   18 C                |  25 C                |  36 C                |   120.97
   18 C                |  25 C                |  41 H                |   119.49
   36 C                |  25 C                |  41 H                |   119.54
   18 C                |  26 C                |  42 C                |   112.96
   18 C                |  26 C                |  43 C                |   109.96
   18 C                |  26 C                |  44 H                |   107.84
   42 C                |  26 C                |  43 C                |   110.25
   42 C                |  26 C                |  44 H                |   107.29
   43 C                |  26 C                |  44 H                |   108.37
   19 C                |  27 C                |  21 C                |   120.26
   19 C                |  27 C                |  45 H                |   119.86
   21 C                |  27 C                |  45 H                |   119.88
   20 C                |  29 C                |  46 H                |   111.38
   20 C                |  29 C                |  47 H                |   111.02
   20 C                |  29 C                |  48 H                |   110.49
   46 H                |  29 C                |  47 H                |   107.62
   46 H                |  29 C                |  48 H                |   108.32
   47 H                |  29 C                |  48 H                |   107.87
   20 C                |  30 C                |  49 H                |   111.07
   20 C                |  30 C                |  50 H                |   110.31
   20 C                |  30 C                |  51 H                |   111.21
   49 H                |  30 C                |  50 H                |   108.40
   49 H                |  30 C                |  51 H                |   107.96
   50 H                |  30 C                |  51 H                |   107.75
   22 C                |  33 C                |  52 H                |   110.87
   22 C                |  33 C                |  53 H                |   111.41
   22 C                |  33 C                |  54 H                |   110.30
   52 H                |  33 C                |  53 H                |   108.03
   52 H                |  33 C                |  54 H                |   108.29
   53 H                |  33 C                |  54 H                |   107.83
   22 C                |  34 C                |  55 H                |   111.56
   22 C                |  34 C                |  56 H                |   110.58
   22 C                |  34 C                |  57 H                |   110.69
   55 H                |  34 C                |  56 H                |   108.42
   55 H                |  34 C                |  57 H                |   107.54
   56 H                |  34 C                |  57 H                |   107.90
   23 C                |  36 C                |  25 C                |   120.34
   23 C                |  36 C                |  58 H                |   119.84
   25 C                |  36 C                |  58 H                |   119.83
   24 C                |  38 C                |  59 H                |   111.73
   24 C                |  38 C                |  60 H                |   110.81
   24 C                |  38 C                |  61 H                |   110.50
   59 H                |  38 C                |  60 H                |   107.51
   59 H                |  38 C                |  61 H                |   108.39
   60 H                |  38 C                |  61 H                |   107.75
   24 C                |  39 C                |  62 H                |   111.10
   24 C                |  39 C                |  63 H                |   110.38
   24 C                |  39 C                |  64 H                |   111.13
   62 H                |  39 C                |  63 H                |   108.52
   62 H                |  39 C                |  64 H                |   107.81
   63 H                |  39 C                |  64 H                |   107.78
   26 C                |  42 C                |  65 H                |   110.67
   26 C                |  42 C                |  66 H                |   111.25
   26 C                |  42 C                |  67 H                |   109.76
   65 H                |  42 C                |  66 H                |   108.38
   65 H                |  42 C                |  67 H                |   109.41
   66 H                |  42 C                |  67 H                |   107.30
   26 C                |  43 C                |  68 H                |   112.18
   26 C                |  43 C                |  69 H                |   110.53
   26 C                |  43 C                |  70 H                |   110.14
   68 H                |  43 C                |  69 H                |   108.46
   68 H                |  43 C                |  70 H                |   107.44
   69 H                |  43 C                |  70 H                |   107.93
    3 Ni               |  71 N                |  83 C                |   123.00
    3 Ni               |  71 N                |  94 C                |   119.93
   83 C                |  71 N                |  94 C                |   115.91
   73 C                |  72 C                |  75 C                |   119.89
   73 C                |  72 C                |  81 H                |   119.96
   75 C                |  72 C                |  81 H                |   120.15
   72 C                |  73 C                |  76 C                |   119.92
   72 C                |  73 C                |  82 H                |   120.34
   76 C                |  73 C                |  82 H                |   119.74
   72 C                |  75 C                |  74 H                |   119.96
   72 C                |  75 C                |  78 C                |   120.16
   74 H                |  75 C                |  78 C                |   119.88
   73 C                |  76 C                |  77 C                |   120.41
   73 C                |  76 C                |  79 H                |   121.77
   77 C                |  76 C                |  79 H                |   117.82
    1 C                |  77 C                |  76 C                |   116.14
    1 C                |  77 C                |  78 C                |   124.08
   76 C                |  77 C                |  78 C                |   119.58
   75 C                |  78 C                |  77 C                |   120.01
   75 C                |  78 C                |  80 H                |   119.92
   77 C                |  78 C                |  80 H                |   120.07
   71 N                |  83 C                |  84 C                |   123.00
   71 N                |  83 C                |  85 C                |   118.97
   84 C                |  83 C                |  85 C                |   118.03
   83 C                |  84 C                |  86 C                |   120.49
   83 C                |  84 C                |  87 H                |   119.62
   86 C                |  84 C                |  87 H                |   119.89
   83 C                |  85 C                |  88 C                |   121.26
   83 C                |  85 C                |  89 H                |   117.86
   88 C                |  85 C                |  89 H                |   120.82
   84 C                |  86 C                |  90 C                |   120.81
   84 C                |  86 C                |  91 H                |   119.43
   90 C                |  86 C                |  91 H                |   119.76
   85 C                |  88 C                |  90 C                |   120.27
   85 C                |  88 C                |  92 H                |   119.33
   90 C                |  88 C                |  92 H                |   120.37
   86 C                |  90 C                |  88 C                |   119.09
   86 C                |  90 C                |  93 H                |   120.47
   88 C                |  90 C                |  93 H                |   120.44
   71 N                |  94 C                |  95 H                |   114.49
   71 N                |  94 C                |  96 H                |   108.99
   71 N                |  94 C                |  97 H                |   109.59
   95 H                |  94 C                |  96 H                |   108.17
   95 H                |  94 C                |  97 H                |   107.01
   96 H                |  94 C                |  97 H                |   108.42
 ------------------------------------------------------------------------------
                            number of included internuclear angles:        180
 ==============================================================================



                      Basis "ao basis" -> "" (cartesian)
                      -----
  C (Carbon)
  ----------
            Exponent  Coefficients 
       -------------- ---------------------------------------------------------
  1 S  1.23840169E+03  0.005457
  1 S  1.86290050E+02  0.040638
  1 S  4.22511763E+01  0.180256
  1 S  1.16765579E+01  0.463151
  1 S  3.59305065E+00  0.440872

  2 S  4.02451474E-01  1.000000

  3 S  1.30901827E-01  1.000000

  4 P  9.46809706E+00  0.038388
  4 P  2.01035451E+00  0.211170
  4 P  5.47710047E-01  0.513282

  5 P  1.52686138E-01  1.000000

  H (Hydrogen)
  ------------
            Exponent  Coefficients 
       -------------- ---------------------------------------------------------
  1 S  1.30107010E+01  0.019682
  1 S  1.96225720E+00  0.137965
  1 S  4.44537960E-01  0.478319

  2 S  1.21949620E-01  1.000000

  O (Oxygen)
  ----------
            Exponent  Coefficients 
       -------------- ---------------------------------------------------------
  1 S  2.26617678E+03 -0.005343
  1 S  3.40870102E+02 -0.039890
  1 S  7.73631352E+01 -0.178539
  1 S  2.14796449E+01 -0.464277
  1 S  6.65894331E+00 -0.443097

  2 S  8.09759757E-01  1.000000

  3 S  2.55307722E-01  1.000000

  4 P  1.77215043E+01  0.043395
  4 P  3.86355054E+00  0.230941
  4 P  1.04809209E+00  0.513753

  5 P  2.76415444E-01  1.000000

  N (Nitrogen)
  ------------
            Exponent  Coefficients 
       -------------- ---------------------------------------------------------
  1 S  1.71284159E+03 -0.005393
  1 S  2.57648127E+02 -0.040222
  1 S  5.84582459E+01 -0.179311
[...]
  ----- ------------  ---------------      ----- ------------  ---------------
   478     12.243744  84 C  s               487     11.279761  85 C  s         
   496    -10.914201  86 C  s               507    -10.956191  88 C  s         
   469    -10.547461  83 C  s               518     10.332278  90 C  s         
   452     -9.808160  78 C  s               414      9.487155  73 C  s         
   434     -9.502865  76 C  s               425      9.449292  75 C  s         

 Vector  526  Occ=0.000000D+00  E= 1.753353D+00
              MO Center=  1.7D+00,  3.2D-01, -5.6D-02, r^2= 1.5D+01
   Bfn.  Coefficient  Atom+Function         Bfn.  Coefficient  Atom+Function  
  ----- ------------  ---------------      ----- ------------  ---------------
   434     13.102303  76 C  s               425    -11.614446  75 C  s         
   414    -11.509311  73 C  s               452     10.928117  78 C  s         
   405     10.625709  72 C  s               443     -9.072517  77 C  s         
   447     -7.984797  77 C  px              113     -7.400314  10 C  s         
   220     -7.122521  25 C  s               157      6.868426  18 C  s         

 Vector  527  Occ=0.000000D+00  E= 1.760748D+00
              MO Center= -6.8D-01,  1.4D+00,  5.7D-02, r^2= 1.5D+01
   Bfn.  Coefficient  Atom+Function         Bfn.  Coefficient  Atom+Function  
  ----- ------------  ---------------      ----- ------------  ---------------
   202     13.863891  23 C  s               220     13.885385  25 C  s         
   157    -13.165334  18 C  s               113     12.218096  10 C  s         
   291    -12.076036  36 C  s               148    -11.999407  17 C  s         
   118     11.624101  10 C  py              154     10.863377  17 C  pz        
   100      9.703301   8 C  py              184     -8.426132  21 C  s         

 Vector  528  Occ=0.000000D+00  E= 1.804042D+00
              MO Center=  4.0D-01, -4.7D-01, -1.1D+00, r^2= 9.5D+00
   Bfn.  Coefficient  Atom+Function         Bfn.  Coefficient  Atom+Function  
  ----- ------------  ---------------      ----- ------------  ---------------
    22     21.154431   3 Ni s                23     -7.946463   3 Ni s         
   166      6.605558  19 C  s                56     -5.392402   3 Ni dzz       
   184      5.206757  21 C  s               238     -5.196355  27 C  s         
   135     -5.091787  14 C  s                51     -4.753822   3 Ni dxx       
    95      4.644105   8 C  s                54     -4.588783   3 Ni dyy       

 Vector  529  Occ=0.000000D+00  E= 1.880299D+00
              MO Center= -1.5D+00,  5.0D-01,  5.2D-01, r^2= 5.7D+00
   Bfn.  Coefficient  Atom+Function         Bfn.  Coefficient  Atom+Function  
  ----- ------------  ---------------      ----- ------------  ---------------
    22      5.993245   3 Ni s               100     -5.023397   8 C  py        
    73     -4.368188   5 N  py               86      4.203308   7 C  s         
   104     -4.164249   9 C  s                23     -3.433914   3 Ni s         
    81     -3.437056   6 N  px               68      3.286897   5 N  s         
   118     -2.985553  10 C  py              507     -2.947854  88 C  s         

 Vector  530  Occ=0.000000D+00  E= 1.944157D+00
              MO Center=  9.3D-01,  5.3D-01, -1.4D+00, r^2= 6.2D+00
   Bfn.  Coefficient  Atom+Function         Bfn.  Coefficient  Atom+Function  
  ----- ------------  ---------------      ----- ------------  ---------------
    22     12.826211   3 Ni s                12     -6.441146   2 O  s         
    23     -5.942659   3 Ni s               113     -5.153318  10 C  s         
     3      4.260104   1 C  s               157      3.847541  18 C  s         
   148      3.564810  17 C  s                 9     -3.414474   1 C  pz        
    54     -3.373308   3 Ni dyy             487      3.376081  85 C  s         

 Vector  531  Occ=0.000000D+00  E= 2.855915D+00
              MO Center=  8.1D-02, -4.5D-01, -8.8D-01, r^2= 2.5D+00
   Bfn.  Coefficient  Atom+Function         Bfn.  Coefficient  Atom+Function  
  ----- ------------  ---------------      ----- ------------  ---------------
    22      8.735060   3 Ni s                21      5.749282   3 Ni s         
    23     -4.878730   3 Ni s                20     -2.987061   3 Ni s         
    45     -2.680274   3 Ni dxx              48     -2.682295   3 Ni dyy       
    50     -2.675308   3 Ni dzz             487      1.768838  85 C  s         
   396     -1.478347  71 N  s               507     -1.431578  88 C  s         

 Vector  532  Occ=0.000000D+00  E= 3.089001D+00
              MO Center=  2.6D-01, -4.7D-01, -6.0D-01, r^2= 1.3D+00
   Bfn.  Coefficient  Atom+Function         Bfn.  Coefficient  Atom+Function  
  ----- ------------  ---------------      ----- ------------  ---------------
    22      4.097154   3 Ni s                21      1.415099   3 Ni s         
    23     -1.281818   3 Ni s                 7      1.198616   1 C  px        
   447      1.159067  77 C  px               32     -1.113142   3 Ni pz        
    33      1.100482   3 Ni px                9      1.016463   1 C  pz        
    29      0.986742   3 Ni pz              396     -0.957101  71 N  s         

 Vector  533  Occ=0.000000D+00  E= 3.305995D+00
              MO Center=  2.3D-01, -3.8D-01, -7.7D-01, r^2= 1.3D+00
   Bfn.  Coefficient  Atom+Function         Bfn.  Coefficient  Atom+Function  
  ----- ------------  ---------------      ----- ------------  ---------------
     3      2.292953   1 C  s               448      2.175751  77 C  py        
   434     -2.105582  76 C  s                 8     -1.745929   1 C  py        
   452      1.659658  78 C  s                31     -1.430084   3 Ni py        
   396     -1.327120  71 N  s               447      1.248591  77 C  px        
    28      1.184511   3 Ni py               77      0.948551   6 N  s         

 Vector  534  Occ=0.000000D+00  E= 3.400193D+00
              MO Center=  1.2D-01, -4.5D-01, -7.2D-01, r^2= 1.3D+00
   Bfn.  Coefficient  Atom+Function         Bfn.  Coefficient  Atom+Function  
  ----- ------------  ---------------      ----- ------------  ---------------
   478     -1.475615  84 C  s                64      1.445600   4 C  py        
   473      1.312573  83 C  px               30     -1.287841   3 Ni px        
   487      1.276169  85 C  s               434     -1.253345  76 C  s         
    77     -1.220242   6 N  s               448      1.191761  77 C  py        
    33     -1.140522   3 Ni px               63     -1.113841   4 C  px        

 Vector  535  Occ=0.000000D+00  E= 4.755808D+00
              MO Center=  1.0D-01, -4.5D-01, -7.3D-01, r^2= 6.1D-01
   Bfn.  Coefficient  Atom+Function         Bfn.  Coefficient  Atom+Function  
  ----- ------------  ---------------      ----- ------------  ---------------
    49      1.603227   3 Ni dyz              43     -1.289996   3 Ni dyz       
    46      1.189280   3 Ni dxy              40     -0.960918   3 Ni dxy       
     3      0.878096   1 C  s                55     -0.867675   3 Ni dyz       
    52     -0.599351   3 Ni dxy             487      0.579101  85 C  s         
    68      0.564817   5 N  s                 9      0.542000   1 C  pz        

 Vector  536  Occ=0.000000D+00  E= 4.797045D+00
              MO Center=  1.0D-01, -4.6D-01, -7.3D-01, r^2= 6.5D-01
   Bfn.  Coefficient  Atom+Function         Bfn.  Coefficient  Atom+Function  
  ----- ------------  ---------------      ----- ------------  ---------------
    95      1.148998   8 C  s                48      1.011326   3 Ni dyy       
   443      0.950886  77 C  s                45     -0.882027   3 Ni dxx       
     9     -0.875394   1 C  pz              135     -0.856961  14 C  s         
    42     -0.780146   3 Ni dyy              12     -0.771191   2 O  s         
    64      0.769385   4 C  py               47     -0.757751   3 Ni dxz       

 Vector  537  Occ=0.000000D+00  E= 4.820204D+00
              MO Center=  9.8D-02, -4.5D-01, -7.4D-01, r^2= 6.4D-01
   Bfn.  Coefficient  Atom+Function         Bfn.  Coefficient  Atom+Function  
  ----- ------------  ---------------      ----- ------------  ---------------
    22      1.987898   3 Ni s                 3     -1.276857   1 C  s         
    56     -1.155350   3 Ni dzz              50      0.985036   3 Ni dzz       
    44     -0.940932   3 Ni dzz              33      0.884659   3 Ni px        
    64     -0.872966   4 C  py               77      0.828286   6 N  s         
    45     -0.815145   3 Ni dxx              48     -0.798327   3 Ni dyy       

 Vector  538  Occ=0.000000D+00  E= 4.904093D+00
              MO Center=  8.2D-02, -4.6D-01, -7.3D-01, r^2= 6.9D-01
   Bfn.  Coefficient  Atom+Function         Bfn.  Coefficient  Atom+Function  
  ----- ------------  ---------------      ----- ------------  ---------------
    22      3.009445   3 Ni s                47      1.559137   3 Ni dxz       
    41     -1.192029   3 Ni dxz              53     -1.168288   3 Ni dxz       
    46     -1.154743   3 Ni dxy              95     -1.043898   8 C  s         
    40      0.885033   3 Ni dxy              52      0.859274   3 Ni dxy       
    45     -0.754742   3 Ni dxx              33      0.739836   3 Ni px        

 Vector  539  Occ=0.000000D+00  E= 5.079023D+00
              MO Center=  1.0D-01, -4.6D-01, -7.4D-01, r^2= 7.0D-01
   Bfn.  Coefficient  Atom+Function         Bfn.  Coefficient  Atom+Function  
  ----- ------------  ---------------      ----- ------------  ---------------
    22      2.295880   3 Ni s                52     -1.447151   3 Ni dxy       
    46      1.401789   3 Ni dxy              53     -1.321486   3 Ni dxz       
    47      1.296063   3 Ni dxz              55      1.227978   3 Ni dyz       
    49     -1.209023   3 Ni dyz              59     -1.066952   4 C  s         
    63     -1.060844   4 C  px               40     -1.017115   3 Ni dxy       

 Vector  540  Occ=0.000000D+00  E= 1.020497D+01
              MO Center=  1.1D-01, -4.6D-01, -7.4D-01, r^2= 6.2D-01
   Bfn.  Coefficient  Atom+Function         Bfn.  Coefficient  Atom+Function  
  ----- ------------  ---------------      ----- ------------  ---------------
    21     27.655033   3 Ni s                20    -17.422481   3 Ni s         
    45     -7.523352   3 Ni dxx              48     -7.492221   3 Ni dyy       
    50     -7.463156   3 Ni dzz              22      3.971256   3 Ni s         
    23     -1.984330   3 Ni s                19      1.506248   3 Ni s         
    56     -0.618747   3 Ni dzz              54     -0.551809   3 Ni dyy       

 Vector  541  Occ=0.000000D+00  E= 4.990208D+01
              MO Center=  1.1D-01, -4.5D-01, -7.4D-01, r^2= 1.1D-01
   Bfn.  Coefficient  Atom+Function         Bfn.  Coefficient  Atom+Function  
  ----- ------------  ---------------      ----- ------------  ---------------
    20     21.379485   3 Ni s                21    -20.660791   3 Ni s         
    45      5.137723   3 Ni dxx              48      5.131329   3 Ni dyy       
    50      5.124203   3 Ni dzz              19     -4.349372   3 Ni s         
    39     -2.734445   3 Ni dxx              42     -2.732520   3 Ni dyy       
    44     -2.730044   3 Ni dzz              22     -1.815679   3 Ni s         

 Vector  542  Occ=0.000000D+00  E= 1.173960D+02
              MO Center=  1.1D-01, -4.5D-01, -7.4D-01, r^2= 2.9D-02
   Bfn.  Coefficient  Atom+Function         Bfn.  Coefficient  Atom+Function  
  ----- ------------  ---------------      ----- ------------  ---------------
    26      0.872070   3 Ni pz               24      0.523370   3 Ni px        
    29     -0.329875   3 Ni pz               25     -0.315416   3 Ni py        
    27     -0.198013   3 Ni px               32      0.170608   3 Ni pz        
    22     -0.134074   3 Ni s                28      0.119208   3 Ni py        
    30      0.102719   3 Ni px               33     -0.081134   3 Ni px        

 Vector  543  Occ=0.000000D+00  E= 1.175707D+02
              MO Center=  1.1D-01, -4.5D-01, -7.4D-01, r^2= 3.1D-02
   Bfn.  Coefficient  Atom+Function         Bfn.  Coefficient  Atom+Function  
  ----- ------------  ---------------      ----- ------------  ---------------
    25      1.017648   3 Ni py               28     -0.392877   3 Ni py        
    26      0.259163   3 Ni pz               31      0.216855   3 Ni py        
    24      0.181501   3 Ni px              448     -0.169717  77 C  py        
     3     -0.163925   1 C  s               434      0.158576  76 C  s         
     8      0.144008   1 C  py              452     -0.133644  78 C  s         

 Vector  544  Occ=0.000000D+00  E= 1.176202D+02
              MO Center=  1.1D-01, -4.5D-01, -7.4D-01, r^2= 3.1D-02
   Bfn.  Coefficient  Atom+Function         Bfn.  Coefficient  Atom+Function  
  ----- ------------  ---------------      ----- ------------  ---------------
    24      0.910459   3 Ni px               26     -0.554097   3 Ni pz        
    27     -0.354317   3 Ni px               29      0.215605   3 Ni pz        
    30      0.200461   3 Ni px              434      0.140389  76 C  s         
   448     -0.137830  77 C  py               32     -0.121817   3 Ni pz        
   478      0.115857  84 C  s                64     -0.109805   4 C  py        

 Vector  545  Occ=0.000000D+00  E= 6.766471D+02
              MO Center=  1.1D-01, -4.5D-01, -7.4D-01, r^2= 2.3D-02
   Bfn.  Coefficient  Atom+Function         Bfn.  Coefficient  Atom+Function  
  ----- ------------  ---------------      ----- ------------  ---------------
    20     28.881705   3 Ni s                21    -15.353620   3 Ni s         
    39     -7.285558   3 Ni dxx              42     -7.286260   3 Ni dyy       
    44     -7.286703   3 Ni dzz              19     -4.276526   3 Ni s         
    45      3.410585   3 Ni dxx              48      3.413027   3 Ni dyy       
    50      3.414502   3 Ni dzz              51      0.129720   3 Ni dxx       


 center of mass
 --------------
 x =   0.06001288 y =  -0.01788560 z =  -0.03325843

 moments of inertia (a.u.)
 ------------------
       24643.515514543738          -0.000000000001           0.000000000000
          -0.000000000001       21151.991039375487           0.000000000000
           0.000000000000           0.000000000000       29494.784384315844

     Multipole analysis of the density
     ---------------------------------

     L   x y z        total         alpha         beta         nuclear
     -   - - -        -----         -----         ----         -------
     0   0 0 0      0.000000   -172.000000   -172.000000    344.000000

     1   1 0 0     -2.204148     -0.100312     -0.100312     -2.003523
     1   0 1 0      0.377854     -4.061801     -4.061801      8.501455
     1   0 0 1      1.875474     -6.023665     -6.023665     13.922805

     2   2 0 0   -203.968751  -3719.861739  -3719.861739   7235.754728
     2   1 1 0      4.209704     -0.177109     -0.177109      4.563922
     2   1 0 1      3.959705    -46.898191    -46.898191     97.756088
     2   0 2 0   -206.127406  -4648.458150  -4648.458150   9090.788894
     2   0 1 1     -0.727756      2.828634      2.828634     -6.385024
     2   0 0 2   -208.305102  -2470.618227  -2470.618227   4732.931353


 Task  times  cpu:     4854.6s     wall:     4854.6s


                                NWChem Input Module
                                -------------------


 Summary of allocated global arrays
-----------------------------------
  No active global arrays


MA_summarize_allocated_blocks: starting scan ...
heap block 'gridpts', handle 106, address 0x625dca43b1a0:
	type of elements:		double precision
	number of elements:		203683869
	address of client space:	0x625dca43b200
	index for client space:		14298395
	total number of bytes:		1629471056
MA_summarize_allocated_blocks: scan completed: 1 heap block, 0 stack blocks
MA usage statistics:

	allocation statistics:
					      heap	     stack
					      ----	     -----
	current number of blocks	         1	         0
	maximum number of blocks	        34	        58
	current total bytes		1629471056	         0
	maximum total bytes		1648841992	  43910984
	maximum total K-bytes		   1648842	     43911
	maximum total M-bytes		      1649	        44


                                     CITATION
                                     --------
                Please cite the following reference when publishing
                           results obtained with NWChem:

          E. Apra, E. J. Bylaska, W. A. de Jong, N. Govind, K. Kowalski,
       T. P. Straatsma, M. Valiev, H. J. J. van Dam, Y. Alexeev, J. Anchell,
       V. Anisimov, F. W. Aquino, R. Atta-Fynn, J. Autschbach, N. P. Bauman,
     J. C. Becca, D. E. Bernholdt, K. Bhaskaran-Nair, S. Bogatko, P. Borowski,
         J. Boschen, J. Brabec, A. Bruner, E. Cauet, Y. Chen, G. N. Chuev,
      C. J. Cramer, J. Daily, M. J. O. Deegan, T. H. Dunning Jr., M. Dupuis,
   K. G. Dyall, G. I. Fann, S. A. Fischer, A. Fonari, H. Fruchtl, L. Gagliardi,
      J. Garza, N. Gawande, S. Ghosh, K. Glaesemann, A. W. Gotz, J. Hammond,
       V. Helms, E. D. Hermes, K. Hirao, S. Hirata, M. Jacquelin, L. Jensen,
   B. G. Johnson, H. Jonsson, R. A. Kendall, M. Klemm, R. Kobayashi, V. Konkov,
      S. Krishnamoorthy, M. Krishnan, Z. Lin, R. D. Lins, R. J. Littlefield,
      A. J. Logsdail, K. Lopata, W. Ma, A. V. Marenich, J. Martin del Campo,
   D. Mejia-Rodriguez, J. E. Moore, J. M. Mullin, T. Nakajima, D. R. Nascimento,
    J. A. Nichols, P. J. Nichols, J. Nieplocha, A. Otero-de-la-Roza, B. Palmer,
    A. Panyala, T. Pirojsirikul, B. Peng, R. Peverati, J. Pittner, L. Pollack,
   R. M. Richard, P. Sadayappan, G. C. Schatz, W. A. Shelton, D. W. Silverstein,
   D. M. A. Smith, T. A. Soares, D. Song, M. Swart, H. L. Taylor, G. S. Thomas,
            V. Tipparaju, D. G. Truhlar, K. Tsemekhman, T. Van Voorhis,
      A. Vazquez-Mayagoitia, P. Verma, O. Villa, A. Vishnu, K. D. Vogiatzis,
        D. Wang, J. H. Weare, M. J. Williamson, T. L. Windus, K. Wolinski,
        A. T. Wong, Q. Wu, C. Yang, Q. Yu, M. Zacharias, Z. Zhang, Y. Zhao,
                                and R. J. Harrison
                        "NWChem: Past, present, and future
                         J. Chem. Phys. 152, 184102 (2020)
                               doi:10.1063/5.0004997

                                      AUTHORS
                                      -------
  E. Apra, E. J. Bylaska, N. Govind, K. Kowalski, M. Valiev, D. Mejia-Rodriguez,
       A. Kunitsa, N. P. Bauman, A. Panyala, W. A. de Jong, T. P. Straatsma,
   H. J. J. van Dam, D. Wang, T. L. Windus, J. Hammond, J. Autschbach, A. Woods,
    K. Bhaskaran-Nair, J. Brabec, K. Lopata, S. A. Fischer, S. Krishnamoorthy,
     M. Jacquelin, W. Ma, M. Klemm, O. Villa, Y. Chen, V. Anisimov, F. Aquino,
     S. Hirata, M. T. Hackler, E. Hermes, L. Jensen, J. E. Moore, J. C. Becca,
      V. Konjkov, T. Risthaus, M. Malagoli, A. Marenich, A. Otero-de-la-Roza,
        J. Mullin, P. Nichols, R. Peverati, J. Pittner, Y. Zhao, P.-D. Fan,
        A. Fonari, M. J. Williamson, R. J. Harrison, J. R. Rehr, M. Dupuis,
     D. Silverstein, D. M. A. Smith, J. Nieplocha, V. Tipparaju, M. Krishnan,
     B. E. Van Kuiken, A. Vazquez-Mayagoitia, M. Swart, Q. Wu, T. Van Voorhis,
     A. A. Auer, M. Nooijen, L. D. Crosby, E. Brown, G. Cisneros, G. I. Fann,
   H. Fruchtl, J. Garza, K. Hirao, R. A. Kendall, J. A. Nichols, K. Tsemekhman,
    K. Wolinski, J. Anchell, D. E. Bernholdt, P. Borowski, T. Clark, D. Clerc,
   H. Dachsel, M. J. O. Deegan, K. Dyall, D. Elwood, E. Glendening, M. Gutowski,
   A. C. Hess, J. Jaffe, B. G. Johnson, J. Ju, R. Kobayashi, R. Kutteh, Z. Lin,
   R. Littlefield, X. Long, B. Meng, T. Nakajima, S. Niu, L. Pollack, M. Rosing,
   K. Glaesemann, G. Sandrone, M. Stave, H. Taylor, G. Thomas, J. H. van Lenthe,
                               A. T. Wong, Z. Zhang.

 Total times  cpu:     4855.1s     wall:     4855.1s
