 argument  1 = nwchem.in
  NWChem w/ OpenMP: maximum threads =    1
                                         
                                         


             Northwest Computational Chemistry Package (NWChem) 7.2.3
             --------------------------------------------------------


                    Environmental Molecular Sciences Laboratory
                       Pacific Northwest National Laboratory
                                Richland, WA 99352

                              Copyright (c) 1994-2022
                       Pacific Northwest National Laboratory
                            Battelle Memorial Institute

             NWChem is an open-source computational chemistry package
                        distributed under the terms of the
                      Educational Community License (ECL) 2.0
             A copy of the license is included with this distribution
                              in the LICENSE.TXT file

                                  ACKNOWLEDGMENT
                                  --------------

            This software and its documentation were developed at the
            EMSL at Pacific Northwest National Laboratory, a multiprogram
            national laboratory, operated for the U.S. Department of Energy
            by Battelle under Contract Number DE-AC05-76RL01830. Support
            for this work was provided by the Department of Energy Office
            of Biological and Environmental Research, Office of Basic
            Energy Sciences, and the Office of Advanced Scientific Computing.


           Job information
           ---------------

    hostname        = 4eea34e33355
    program         = nwchem
    date            = Thu Jul  3 03:25:44 2025

    compiled        = Fri_May_02_22:05:35_2025
    source          = /opt/nwchem
    nwchem branch   = 7.2.3
    nwchem revision = N/A
    ga revision     = 5.9.1
    use scalapack   = T
    input           = nwchem.in
    prefix          = ni_singlepoint.
    data base       = ./ni_singlepoint.db
    status          = startup
    nproc           =        5
    time left       =     -1s



           Memory information
           ------------------

    heap     =    509724440 doubles =     3888.9 Mbytes
    stack    =    509724441 doubles =     3888.9 Mbytes
    global   =    291271111 doubles =     2222.2 Mbytes (distinct from heap & stack)
    total    =   1310719992 doubles =    10000.0 Mbytes
    verify   = yes
    hardfail = no 


           Directory information
           ---------------------

  0 permanent = .
  0 scratch   = .




                                NWChem Input Module
                                -------------------


                          Ni complex single-point energy
                          ------------------------------

 Scaling coordinates for geometry "geometry" by  1.889725989
 (inverse scale =  0.529177249)

 C1  symmetry detected

          ------
          auto-z
          ------
  no constraints, skipping    0.0000000000000000     
  no constraints, skipping    0.0000000000000000     


                             Geometry "geometry" -> ""
                             -------------------------

 Output coordinates in angstroms (scale by  1.889725989 to convert to a.u.)

  No.       Tag          Charge          X              Y              Z
 ---- ---------------- ---------- -------------- -------------- --------------
    1 C                    6.0000     1.37081550     0.83462006    -1.19244307
    2 O                    8.0000     1.23116797     1.51432740    -2.18208976
    3 Ni                  28.0000     0.13079379    -0.45140218    -0.78821104
    4 C                    6.0000    -1.17545043     0.40091070     0.31796245
    5 N                    7.0000    -2.07494457    -0.39591783     0.92108521
    6 N                    7.0000    -1.55290148     1.66006454     0.55039518
    7 C                    6.0000    -3.11283144     0.32092575     1.66290314
    8 C                    6.0000    -1.96753576    -1.81951693     0.93369746
    9 C                    6.0000    -2.83512172     1.77003353     1.25656202
   10 C                    6.0000    -0.87839434     2.82992777     0.08341802
   11 H                    1.0000    -4.10507417    -0.02173257     1.36538968
   12 H                    1.0000    -3.00194412     0.15428919     2.73784297
   13 C                    6.0000    -2.56175797    -2.54770517    -0.10215204
   14 C                    6.0000    -1.27796682    -2.43736300     1.98315791
   15 H                    1.0000    -3.59720812     2.16723851     0.58143138
   16 H                    1.0000    -2.74865697     2.44580029     2.10772394
   17 C                    6.0000    -0.04393078     3.50756544     0.97666276
   18 C                    6.0000    -1.09539545     3.26712464    -1.22597567
   19 C                    6.0000    -2.40577392    -3.92985189    -0.09525326
   20 C                    6.0000    -3.37885263    -1.87635543    -1.18888941
   21 C                    6.0000    -1.16287828    -3.82181771     1.95813230
   22 C                    6.0000    -0.67526271    -1.64100665     3.12400524
   23 C                    6.0000     0.62454253     4.63335844     0.51017945
   24 C                    6.0000     0.12524201     3.06533081     2.41889778
   25 C                    6.0000    -0.40524439     4.39605042    -1.64853194
   26 C                    6.0000    -2.08012852     2.57461687    -2.14959995
   27 C                    6.0000    -1.70888662    -4.56059671     0.92067920
   28 H                    1.0000    -2.83358302    -4.51913510    -0.89672241
   29 C                    6.0000    -4.84654290    -2.30435791    -1.09561260
   30 C                    6.0000    -2.80765116    -2.15162090    -2.57981089
   31 H                    1.0000    -3.33505685    -0.79762134    -1.02353364
   32 H                    1.0000    -0.62143724    -4.32778355     2.74814743
   33 C                    6.0000     0.82448944    -1.89946193     3.26364739
   34 C                    6.0000    -1.40813807    -1.94001482     4.43448046
   35 H                    1.0000    -0.79833363    -0.57943592     2.89895994
   36 C                    6.0000     0.45303429     5.06741179    -0.79338618
   37 H                    1.0000     1.29080598     5.17224943     1.17298789
   38 C                    6.0000    -0.42207191     4.12184322     3.38308947
   39 C                    6.0000     1.58129468     2.73791912     2.74539688
   40 H                    1.0000    -0.45172456     2.14831288     2.56082311
   41 H                    1.0000    -0.53014247     4.74819985    -2.66437183
   42 C                    6.0000    -1.51652778     2.32157127    -3.54769734
   43 C                    6.0000    -3.37450354     3.39050825    -2.24114364
   44 H                    1.0000    -2.31872346     1.60075354    -1.71557896
   45 H                    1.0000    -1.58632891    -5.63588389     0.90250845
   46 H                    1.0000    -5.26225132    -2.09467516    -0.10784554
   47 H                    1.0000    -4.95341420    -3.37543096    -1.27842708
   48 H                    1.0000    -5.44625602    -1.77652781    -1.83921802
   49 H                    1.0000    -1.76299988    -1.84191187    -2.64383092
   50 H                    1.0000    -3.38052972    -1.61263125    -3.33691151
   51 H                    1.0000    -2.85538601    -3.21558898    -2.82079642
   52 H                    1.0000     1.34473757    -1.68950774     2.32975277
   53 H                    1.0000     1.02539842    -2.93794330     3.53410056
   54 H                    1.0000     1.24728296    -1.26280788     4.04317754
   55 H                    1.0000    -2.47950623    -1.74764584     4.34865832
   56 H                    1.0000    -1.01155832    -1.32603266     5.24500352
   57 H                    1.0000    -1.28381844    -2.98784685     4.71550851
   58 H                    1.0000     0.99036878     5.93899683    -1.14531893
   59 H                    1.0000    -1.46736814     4.35940118     3.17525418
   60 H                    1.0000     0.14803315     5.04970839     3.30464595
   61 H                    1.0000    -0.34677700     3.77165336     4.41455961
   62 H                    1.0000     1.97089015     1.97238434     2.07686190
   63 H                    1.0000     1.66752130     2.37631664     3.77250479
   64 H                    1.0000     2.21524903     3.62149791     2.64810704
   65 H                    1.0000    -0.56305017     1.80182516    -3.49027543
   66 H                    1.0000    -1.36583274     3.25794180    -4.08937011
   67 H                    1.0000    -2.22159729     1.72072905    -4.12606452
   68 H                    1.0000    -3.81689493     3.57359413    -1.25994675
   69 H                    1.0000    -4.10964235     2.87282787    -2.86062154
   70 H                    1.0000    -3.17515228     4.36286026    -2.69719000
   71 N                    7.0000     0.98398818    -1.58891260    -1.94011417
   72 C                    6.0000     4.78105626     1.48055626     1.29945491
   73 C                    6.0000     4.42757385     2.40767374     0.32574655
   74 H                    1.0000     4.35951604    -0.43611298     2.16912697
   75 C                    6.0000     4.07080392     0.29349904     1.42289692
   76 C                    6.0000     3.34402886     2.16105984    -0.49928853
   77 C                    6.0000     2.60155469     0.99437740    -0.34588414
   78 C                    6.0000     2.98039505     0.05010806     0.59913145
   79 H                    1.0000     3.04049681     2.86040649    -1.26778361
   80 H                    1.0000     2.42531562    -0.87642142     0.67949717
   81 H                    1.0000     5.61289990     1.68546698     1.96153185
   82 H                    1.0000     4.99309373     3.32441690     0.21537323
   83 C                    6.0000     1.95152998    -2.48795499    -1.50437439
   84 C                    6.0000     3.19995033    -2.67393368    -2.11881650
   85 C                    6.0000     1.65952690    -3.28576035    -0.38725724
   86 C                    6.0000     4.07406708    -3.65395208    -1.66754669
   87 H                    1.0000     3.50156001    -2.04453626    -2.94494587
   88 C                    6.0000     2.53129664    -4.26390563     0.05223886
   89 H                    1.0000     0.69551209    -3.15071866     0.09075296
   90 C                    6.0000     3.74412138    -4.47145241    -0.59660234
   91 H                    1.0000     5.02784250    -3.78196763    -2.16641180
   92 H                    1.0000     2.24596683    -4.89322711     0.88748371
   93 H                    1.0000     4.41181126    -5.26197615    -0.28010476
   94 C                    6.0000     1.00344453    -1.26838146    -3.35712145
   95 H                    1.0000     1.96123945    -0.89281446    -3.73369580
   96 H                    1.0000     0.73723538    -2.15873739    -3.93978953
   97 H                    1.0000     0.26538229    -0.49410987    -3.56161673

      Atomic Mass 
      ----------- 

      C                 12.000000
      O                 15.994910
      Ni                57.935300
      N                 14.003070
      H                  1.007825


 Effective nuclear repulsion energy (a.u.)    7253.2810611896

            Nuclear Dipole moment (a.u.) 
            ----------------------------
        X                 Y               Z
 ---------------- ---------------- ----------------
    -0.0000000000    -0.0000000000     0.0000000000



                                Z-matrix (autoz)
                                -------- 

 Units are Angstrom for bonds and degrees for angles

      Type          Name      I     J     K     L     M      Value
      ----------- --------  ----- ----- ----- ----- ----- ----------
    1 Stretch                  1     2                       1.20868
    2 Stretch                  1     3                       1.83164
    3 Stretch                  1    77                       1.50230
    4 Stretch                  3     4                       1.91215
    5 Stretch                  3    71                       1.82996
    6 Stretch                  4     5                       1.34454
    7 Stretch                  4     6                       1.33490
    8 Stretch                  5     7                       1.46334
    9 Stretch                  5     8                       1.42770
   10 Stretch                  6     9                       1.46794
   11 Stretch                  6    10                       1.42885
   12 Stretch                  7     9                       1.53041
   13 Stretch                  7    11                       1.09109
   14 Stretch                  7    12                       1.09342
   15 Stretch                  8    13                       1.39869
   16 Stretch                  8    14                       1.39950
   17 Stretch                  9    15                       1.09286
   18 Stretch                  9    16                       1.09024
   19 Stretch                 10    17                       1.39764
   20 Stretch                 10    18                       1.39741
   21 Stretch                 13    19                       1.39094
   22 Stretch                 13    20                       1.51636
   23 Stretch                 14    21                       1.38946
   24 Stretch                 14    22                       1.51623
   25 Stretch                 17    23                       1.38992
   26 Stretch                 17    24                       1.51797
   27 Stretch                 18    25                       1.38901
   28 Stretch                 18    26                       1.51735
   29 Stretch                 19    27                       1.38406
   30 Stretch                 19    28                       1.08288
   31 Stretch                 20    29                       1.53167
   32 Stretch                 20    30                       1.52863
   33 Stretch                 20    31                       1.09221
   34 Stretch                 21    27                       1.38572
   35 Stretch                 21    32                       1.08318
   36 Stretch                 22    33                       1.52825
   37 Stretch                 22    34                       1.53097
   38 Stretch                 22    35                       1.09212
   39 Stretch                 23    36                       1.38459
   40 Stretch                 23    37                       1.08334
   41 Stretch                 24    38                       1.53148
   42 Stretch                 24    39                       1.52771
   43 Stretch                 24    40                       1.09268
   44 Stretch                 25    36                       1.38515
   45 Stretch                 25    41                       1.08238
   46 Stretch                 26    42                       1.52851
   47 Stretch                 26    43                       1.53280
   48 Stretch                 26    44                       1.09257
   49 Stretch                 27    45                       1.08240
   50 Stretch                 29    46                       1.09200
   51 Stretch                 29    47                       1.09181
   52 Stretch                 29    48                       1.09143
   53 Stretch                 30    49                       1.09147
   54 Stretch                 30    50                       1.09174
   55 Stretch                 30    51                       1.09196
   56 Stretch                 33    52                       1.08945
   57 Stretch                 33    53                       1.09177
   58 Stretch                 33    54                       1.09167
   59 Stretch                 34    55                       1.09188
   60 Stretch                 34    56                       1.09142
   61 Stretch                 34    57                       1.09196
   62 Stretch                 36    58                       1.08270
   63 Stretch                 38    59                       1.09191
   64 Stretch                 38    60                       1.09184
   65 Stretch                 38    61                       1.09189
   66 Stretch                 39    62                       1.08847
   67 Stretch                 39    63                       1.09231
   68 Stretch                 39    64                       1.09182
   69 Stretch                 42    65                       1.08745
   70 Stretch                 42    66                       1.09220
   71 Stretch                 42    67                       1.09208
   72 Stretch                 43    68                       1.09178
   73 Stretch                 43    69                       1.09187
   74 Stretch                 43    70                       1.09233
   75 Stretch                 71    83                       1.39079
   76 Stretch                 71    94                       1.45294
   77 Stretch                 72    73                       1.39018
   78 Stretch                 72    75                       1.38881
   79 Stretch                 72    81                       1.08273
   80 Stretch                 73    76                       1.38404
   81 Stretch                 73    82                       1.08278
   82 Stretch                 74    75                       1.08284
   83 Stretch                 75    78                       1.38810
   84 Stretch                 76    77                       1.39138
   85 Stretch                 76    79                       1.08250
   86 Stretch                 77    78                       1.38860
   87 Stretch                 78    80                       1.08306
   88 Stretch                 83    84                       1.40381
   89 Stretch                 83    85                       1.40346
   90 Stretch                 84    86                       1.38858
   91 Stretch                 84    87                       1.08148
   92 Stretch                 85    88                       1.38199
   93 Stretch                 85    89                       1.08446
   94 Stretch                 86    90                       1.38712
   95 Stretch                 86    91                       1.08395
   96 Stretch                 88    90                       1.39105
   97 Stretch                 88    92                       1.08402
   98 Stretch                 90    93                       1.08209
   99 Stretch                 94    95                       1.09555
  100 Stretch                 94    96                       1.09686
  101 Stretch                 94    97                       1.08906
  102 Bend                     1     3     4               106.09263
  103 Bend                     1     3    71                88.96146
  104 Bend                     1    77    76               117.65867
  105 Bend                     1    77    78               122.32274
  106 Bend                     2     1     3               119.82285
  107 Bend                     2     1    77               119.75171
  108 Bend                     3     1    77               120.32637
  109 Bend                     3     4     5               116.89443
  110 Bend                     3     4     6               135.58811
  111 Bend                     3    71    83               121.93509
  112 Bend                     3    71    94               118.88248
  113 Bend                     4     3    71               163.68159
  114 Bend                     4     5     7               114.30374
  115 Bend                     4     5     8               122.99535
  116 Bend                     4     6     9               113.66614
  117 Bend                     4     6    10               125.58443
  118 Bend                     5     4     6               106.96238
  119 Bend                     5     7     9               101.56880
  120 Bend                     5     7    11               110.66671
  121 Bend                     5     7    12               110.59647
  122 Bend                     5     8    13               118.72595
  123 Bend                     5     8    14               118.94045
  124 Bend                     6     9     7               102.43288
  125 Bend                     6     9    15               109.82523
  126 Bend                     6     9    16               110.65434
  127 Bend                     6    10    17               118.03008
  128 Bend                     6    10    18               119.28053
  129 Bend                     7     5     8               122.50281
  130 Bend                     7     9    15               112.43473
  131 Bend                     7     9    16               113.20429
  132 Bend                     8    13    19               117.77586
  133 Bend                     8    13    20               121.95046
  134 Bend                     8    14    21               117.85223
  135 Bend                     8    14    22               121.88480
  136 Bend                     9     6    10               120.54557
  137 Bend                     9     7    11               112.95398
  138 Bend                     9     7    12               112.76338
  139 Bend                    10    17    23               117.73350
  140 Bend                    10    17    24               122.17518
  141 Bend                    10    18    25               117.52782
  142 Bend                    10    18    26               121.89486
  143 Bend                    11     7    12               108.20590
  144 Bend                    13     8    14               122.33294
  145 Bend                    13    19    27               120.86038
  146 Bend                    13    19    28               119.52264
  147 Bend                    13    20    29               110.42516
  148 Bend                    13    20    30               111.77945
  149 Bend                    13    20    31               107.88850
  150 Bend                    14    21    27               120.80146
  151 Bend                    14    21    32               119.58384
  152 Bend                    14    22    33               111.71653
  153 Bend                    14    22    34               110.56036
  154 Bend                    14    22    35               108.10069
  155 Bend                    15     9    16               108.19904
  156 Bend                    17    10    18               122.67551
  157 Bend                    17    23    36               120.68515
  158 Bend                    17    23    37               119.56128
  159 Bend                    17    24    38               110.93825
  160 Bend                    17    24    39               111.82125
  161 Bend                    17    24    40               108.00239
  162 Bend                    18    25    36               120.93013
  163 Bend                    18    25    41               119.51220
  164 Bend                    18    26    42               113.14334
  165 Bend                    18    26    43               109.96562
  166 Bend                    18    26    44               107.86182
  167 Bend                    19    13    20               120.25983
  168 Bend                    19    27    21               120.32994
  169 Bend                    19    27    45               119.82918
  170 Bend                    20    29    46               111.48232
  171 Bend                    20    29    47               110.96078
  172 Bend                    20    29    48               110.48090
  173 Bend                    20    30    49               111.09491
  174 Bend                    20    30    50               110.24449
  175 Bend                    20    30    51               111.09600
  176 Bend                    21    14    22               120.26209
  177 Bend                    21    27    45               119.84041
  178 Bend                    22    33    52               110.95956
  179 Bend                    22    33    53               111.35157
  180 Bend                    22    33    54               110.28474
  181 Bend                    22    34    55               111.59349
  182 Bend                    22    34    56               110.60145
  183 Bend                    22    34    57               110.68370
  184 Bend                    23    17    24               120.08246
  185 Bend                    23    36    25               120.40090
  186 Bend                    23    36    58               119.79599
  187 Bend                    24    38    59               111.86191
  188 Bend                    24    38    60               110.75807
  189 Bend                    24    38    61               110.41672
  190 Bend                    24    39    62               111.13749
  191 Bend                    24    39    63               110.31285
  192 Bend                    24    39    64               111.15682
  193 Bend                    25    18    26               120.54514
  194 Bend                    25    36    58               119.80274
  195 Bend                    26    42    65               110.73972
  196 Bend                    26    42    66               111.25837
  197 Bend                    26    42    67               109.72100
  198 Bend                    26    43    68               112.19519
  199 Bend                    26    43    69               110.49169
  200 Bend                    26    43    70               110.16012
  201 Bend                    27    19    28               119.61684
  202 Bend                    27    21    32               119.60158
  203 Bend                    29    20    30               111.29410
  204 Bend                    29    20    31               107.76966
  205 Bend                    30    20    31               107.49512
  206 Bend                    33    22    34               111.00994
  207 Bend                    33    22    35               107.08589
  208 Bend                    34    22    35               108.19696
  209 Bend                    36    23    37               119.75258
  210 Bend                    36    25    41               119.55273
  211 Bend                    38    24    39               110.72658
  212 Bend                    38    24    40               107.96758
  213 Bend                    39    24    40               107.19596
  214 Bend                    42    26    43               110.17348
  215 Bend                    42    26    44               107.23623
  216 Bend                    43    26    44               108.28658
  217 Bend                    46    29    47               107.61186
  218 Bend                    46    29    48               108.31512
  219 Bend                    47    29    48               107.85235
  220 Bend                    49    30    50               108.75147
  221 Bend                    49    30    51               107.78065
  222 Bend                    50    30    51               107.76161
  223 Bend                    52    33    53               107.92576
  224 Bend                    52    33    54               108.34747
  225 Bend                    53    33    54               107.85255
  226 Bend                    55    34    56               108.40882
  227 Bend                    55    34    57               107.51772
  228 Bend                    56    34    57               107.89814
  229 Bend                    59    38    60               107.53553
  230 Bend                    59    38    61               108.39687
  231 Bend                    60    38    61               107.72301
  232 Bend                    62    39    63               108.44849
  233 Bend                    62    39    64               107.85520
  234 Bend                    63    39    64               107.80974
  235 Bend                    65    42    66               108.35893
  236 Bend                    65    42    67               109.33471
  237 Bend                    66    42    67               107.34399
  238 Bend                    68    43    69               108.45638
  239 Bend                    68    43    70               107.45075
  240 Bend                    69    43    70               107.94187
  241 Bend                    71    83    84               124.55396
  242 Bend                    71    83    85               118.17098
  243 Bend                    71    94    95               114.99664
  244 Bend                    71    94    96               109.61830
  245 Bend                    71    94    97               109.32320
  246 Bend                    72    73    76               119.85167
  247 Bend                    72    73    82               120.21420
  248 Bend                    72    75    74               120.05352
  249 Bend                    72    75    78               119.92425
  250 Bend                    73    72    75               120.14833
  251 Bend                    73    72    81               119.83057
  252 Bend                    73    76    77               120.09603
  253 Bend                    73    76    79               121.84323
  254 Bend                    74    75    78               120.01784
  255 Bend                    75    72    81               120.02107
  256 Bend                    75    78    77               119.93054
  257 Bend                    75    78    80               120.56797
  258 Bend                    76    73    82               119.93290
  259 Bend                    76    77    78               119.97647
  260 Bend                    77    76    79               118.05762
  261 Bend                    77    78    80               119.49890
  262 Bend                    83    71    94               116.03046
  263 Bend                    83    84    86               120.73572
  264 Bend                    83    84    87               120.34897
  265 Bend                    83    85    88               121.61620
  266 Bend                    83    85    89               117.71113
  267 Bend                    84    83    85               117.26540
  268 Bend                    84    86    90               121.13930
  269 Bend                    84    86    91               119.18883
  270 Bend                    85    88    90               120.48097
  271 Bend                    85    88    92               119.33362
  272 Bend                    86    84    87               118.91000
  273 Bend                    86    90    88               118.65791
  274 Bend                    86    90    93               120.63740
  275 Bend                    88    85    89               120.57763
  276 Bend                    88    90    93               120.70084
  277 Bend                    90    86    91               119.67129
  278 Bend                    90    88    92               120.15029
  279 Bend                    95    94    96               107.93028
  280 Bend                    95    94    97               106.51250
  281 Bend                    96    94    97               108.23267
  282 Torsion                  1     3     4     5        -169.52897
  283 Torsion                  1     3     4     6          20.34918
  284 Torsion                  1     3    71    83          94.16475
  285 Torsion                  1     3    71    94         -64.96742
  286 Torsion                  1    77    76    73         175.04144
  287 Torsion                  1    77    76    79          -4.32816
  288 Torsion                  1    77    78    75        -175.24090
  289 Torsion                  1    77    78    80           5.34111
  290 Torsion                  2     1     3     4         -90.42772
  291 Torsion                  2     1     3    71          83.18348
  292 Torsion                  2     1    77    76          18.19752
  293 Torsion                  2     1    77    78        -164.16583
  294 Torsion                  3     1    77    76        -165.42758
  295 Torsion                  3     1    77    78          12.20907
  296 Torsion                  3     4     5     7        -175.19736
  297 Torsion                  3     4     5     8           9.80608
  298 Torsion                  3     4     6     9         165.89969
  299 Torsion                  3     4     6    10          -8.90416
  300 Torsion                  3    71    83    84        -132.53151
  301 Torsion                  3    71    83    85          48.63329
  302 Torsion                  3    71    94    95         105.10348
  303 Torsion                  3    71    94    96        -133.10727
  304 Torsion                  3    71    94    97         -14.61934
  305 Torsion                  4     3     1    77          93.19996
  306 Torsion                  4     3    71    83        -108.20066
  307 Torsion                  4     3    71    94          92.66716
  308 Torsion                  4     5     7     9           7.98926
  309 Torsion                  4     5     7    11         128.16621
  310 Torsion                  4     5     7    12        -111.93447
  311 Torsion                  4     5     8    13         -89.90820
  312 Torsion                  4     5     8    14          90.37959
  313 Torsion                  4     6     9     7           9.54901
  314 Torsion                  4     6     9    15        -110.11406
  315 Torsion                  4     6     9    16         130.49925
  316 Torsion                  4     6    10    17        -100.13625
  317 Torsion                  4     6    10    18          81.18254
  318 Torsion                  5     4     3    71          33.79725
  319 Torsion                  5     4     6     9          -4.89590
  320 Torsion                  5     4     6    10        -179.69975
  321 Torsion                  5     7     9     6          -9.61744
  322 Torsion                  5     7     9    15         108.20675
  323 Torsion                  5     7     9    16        -128.79396
  324 Torsion                  5     8    13    19         177.82849
  325 Torsion                  5     8    13    20          -3.52300
  326 Torsion                  5     8    14    21        -178.66795
  327 Torsion                  5     8    14    22           1.67076
  328 Torsion                  6     4     3    71        -136.32460
  329 Torsion                  6     4     5     7          -2.40788
  330 Torsion                  6     4     5     8        -177.40444
  331 Torsion                  6     9     7    11        -128.16743
  332 Torsion                  6     9     7    12         108.76176
  333 Torsion                  6    10    17    23         179.06853
  334 Torsion                  6    10    17    24          -2.01481
  335 Torsion                  6    10    18    25        -179.01980
  336 Torsion                  6    10    18    26           3.03384
  337 Torsion                  7     5     8    13          95.49989
  338 Torsion                  7     5     8    14         -84.21233
  339 Torsion                  7     9     6    10        -175.35700
  340 Torsion                  8     5     7     9        -176.98651
  341 Torsion                  8     5     7    11         -56.80956
  342 Torsion                  8     5     7    12          63.08976
  343 Torsion                  8    13    19    27           1.34150
  344 Torsion                  8    13    19    28        -178.52171
  345 Torsion                  8    13    20    29        -113.95091
  346 Torsion                  8    13    20    30         121.57037
  347 Torsion                  8    13    20    31           3.59170
  348 Torsion                  8    14    21    27           0.36198
  349 Torsion                  8    14    21    32         179.03866
  350 Torsion                  8    14    22    33        -123.14155
  351 Torsion                  8    14    22    34         112.69435
  352 Torsion                  8    14    22    35          -5.56715
  353 Torsion                  9     6    10    17          85.39078
  354 Torsion                  9     6    10    18         -93.29043
  355 Torsion                 10     6     9    15          64.97992
  356 Torsion                 10     6     9    16         -54.40677
  357 Torsion                 10    17    23    36           0.57939
  358 Torsion                 10    17    23    37        -179.05794
  359 Torsion                 10    17    24    38        -114.92665
  360 Torsion                 10    17    24    39         120.92188
  361 Torsion                 10    17    24    40           3.21366
  362 Torsion                 10    18    25    36          -0.71768
  363 Torsion                 10    18    25    41         178.46972
  364 Torsion                 10    18    26    42        -133.80003
  365 Torsion                 10    18    26    43         102.53678
  366 Torsion                 10    18    26    44         -15.35563
  367 Torsion                 11     7     9    15         -10.34324
  368 Torsion                 11     7     9    16         112.65606
  369 Torsion                 12     7     9    15        -133.41405
  370 Torsion                 12     7     9    16         -10.41475
  371 Torsion                 13     8    14    21           1.63073
  372 Torsion                 13     8    14    22        -178.03056
  373 Torsion                 13    19    27    21           0.56152
  374 Torsion                 13    19    27    45        -179.18610
  375 Torsion                 13    20    29    46          56.13527
  376 Torsion                 13    20    29    47         -63.79591
  377 Torsion                 13    20    29    48         176.63168
  378 Torsion                 13    20    30    49         -56.22828
  379 Torsion                 13    20    30    50        -176.85978
  380 Torsion                 13    20    30    51          63.74819
  381 Torsion                 14     8    13    19          -2.46957
  382 Torsion                 14     8    13    20         176.17894
  383 Torsion                 14    21    27    19          -1.44390
  384 Torsion                 14    21    27    45         178.30370
  385 Torsion                 14    22    33    52          55.90612
  386 Torsion                 14    22    33    53         -64.33403
  387 Torsion                 14    22    33    54         175.96903
  388 Torsion                 14    22    34    55         -56.07480
  389 Torsion                 14    22    34    56        -176.84629
  390 Torsion                 14    22    34    57          63.62485
  391 Torsion                 17    10    18    25           2.36318
  392 Torsion                 17    10    18    26        -175.58318
  393 Torsion                 17    23    36    25           0.97967
  394 Torsion                 17    23    36    58        -179.24094
  395 Torsion                 17    24    38    59          56.05749
  396 Torsion                 17    24    38    60         -63.89335
  397 Torsion                 17    24    38    61         176.86756
  398 Torsion                 17    24    39    62         -56.90437
  399 Torsion                 17    24    39    63        -177.22853
  400 Torsion                 17    24    39    64          63.23559
  401 Torsion                 18    10    17    23          -2.29804
  402 Torsion                 18    10    17    24         176.61862
  403 Torsion                 18    25    36    23          -0.90868
  404 Torsion                 18    25    36    58         179.31194
  405 Torsion                 18    26    42    65          52.60723
  406 Torsion                 18    26    42    66         -67.97010
  407 Torsion                 18    26    42    67         173.39256
  408 Torsion                 18    26    43    68         -55.76369
  409 Torsion                 18    26    43    69        -176.92776
  410 Torsion                 18    26    43    70          63.89379
  411 Torsion                 19    13    20    29          64.66468
  412 Torsion                 19    13    20    30         -59.81403
  413 Torsion                 19    13    20    31        -177.79271
  414 Torsion                 19    27    21    32         179.87966
  415 Torsion                 20    13    19    27        -177.33087
  416 Torsion                 20    13    19    28           2.80592
  417 Torsion                 21    14    22    33          57.20516
  418 Torsion                 21    14    22    34         -66.95893
  419 Torsion                 21    14    22    35         174.77956
  420 Torsion                 21    27    19    28        -179.57539
  421 Torsion                 22    14    21    27        -179.97099
  422 Torsion                 22    14    21    32          -1.29432
  423 Torsion                 23    17    24    38          63.96520
  424 Torsion                 23    17    24    39         -60.18628
  425 Torsion                 23    17    24    40        -177.89449
  426 Torsion                 23    36    25    41         179.90424
  427 Torsion                 24    17    23    36        -178.36091
  428 Torsion                 24    17    23    37           2.00175
  429 Torsion                 25    18    26    42          48.31458
  430 Torsion                 25    18    26    43         -75.34862
  431 Torsion                 25    18    26    44         166.75898
  432 Torsion                 25    36    23    37        -179.38369
  433 Torsion                 26    18    25    36         177.25781
  434 Torsion                 26    18    25    41          -3.55478
  435 Torsion                 28    19    27    45           0.67698
  436 Torsion                 29    20    30    49         179.77960
  437 Torsion                 29    20    30    50          59.14809
  438 Torsion                 29    20    30    51         -60.24394
  439 Torsion                 30    20    29    46        -179.10854
  440 Torsion                 30    20    29    47          60.96027
  441 Torsion                 30    20    29    48         -58.61214
  442 Torsion                 31    20    29    46         -61.48051
  443 Torsion                 31    20    29    47         178.58830
  444 Torsion                 31    20    29    48          59.01589
  445 Torsion                 31    20    30    49          61.98544
  446 Torsion                 31    20    30    50         -58.64606
  447 Torsion                 31    20    30    51        -178.03809
  448 Torsion                 32    21    27    45          -0.37275
  449 Torsion                 33    22    34    55         179.35694
  450 Torsion                 33    22    34    56          58.58544
  451 Torsion                 33    22    34    57         -60.94341
  452 Torsion                 34    22    33    52         179.81758
  453 Torsion                 34    22    33    53          59.57742
  454 Torsion                 34    22    33    54         -60.11952
  455 Torsion                 35    22    33    52         -62.27659
  456 Torsion                 35    22    33    53         177.48326
  457 Torsion                 35    22    33    54          57.78632
  458 Torsion                 35    22    34    55          62.12793
  459 Torsion                 35    22    34    56         -58.64356
  460 Torsion                 35    22    34    57        -178.17242
  461 Torsion                 37    23    36    58           0.39571
  462 Torsion                 38    24    39    62         178.82569
  463 Torsion                 38    24    39    63          58.50152
  464 Torsion                 38    24    39    64         -61.03435
  465 Torsion                 39    24    38    59        -179.16999
  466 Torsion                 39    24    38    60          60.87917
  467 Torsion                 39    24    38    61         -58.35991
  468 Torsion                 40    24    38    59         -62.10394
  469 Torsion                 40    24    38    60         177.94522
  470 Torsion                 40    24    38    61          58.70614
  471 Torsion                 40    24    39    62          61.28598
  472 Torsion                 40    24    39    63         -59.03819
  473 Torsion                 40    24    39    64        -178.57406
  474 Torsion                 41    25    36    58           0.12486
  475 Torsion                 42    26    43    68         178.85822
  476 Torsion                 42    26    43    69          57.69415
  477 Torsion                 42    26    43    70         -61.48430
  478 Torsion                 43    26    42    65         176.15615
  479 Torsion                 43    26    42    66          55.57882
  480 Torsion                 43    26    42    67         -63.05852
  481 Torsion                 44    26    42    65         -66.19965
  482 Torsion                 44    26    42    66         173.22303
  483 Torsion                 44    26    42    67          54.58568
  484 Torsion                 44    26    43    68          61.86536
  485 Torsion                 44    26    43    69         -59.29871
  486 Torsion                 44    26    43    70        -178.47716
  487 Torsion                 71     3     1    77         -93.18884
  488 Torsion                 71    83    84    86        -175.91444
  489 Torsion                 71    83    84    87           4.93261
  490 Torsion                 71    83    85    88         175.62236
  491 Torsion                 71    83    85    89          -0.85129
  492 Torsion                 72    73    76    77           0.65659
  493 Torsion                 72    73    76    79        -179.99828
  494 Torsion                 72    75    78    77          -0.04462
  495 Torsion                 72    75    78    80         179.36706
  496 Torsion                 73    72    75    74         178.80691
  497 Torsion                 73    72    75    78          -1.95488
  498 Torsion                 73    76    77    78          -2.65302
  499 Torsion                 74    75    72    81          -1.12531
  500 Torsion                 74    75    78    77         179.19387
  501 Torsion                 74    75    78    80          -1.39446
  502 Torsion                 75    72    73    76           1.64780
  503 Torsion                 75    72    73    82        -178.75564
  504 Torsion                 75    78    77    76           2.34251
  505 Torsion                 76    73    72    81        -178.41985
  506 Torsion                 76    77    78    80        -177.07547
  507 Torsion                 77    76    73    82        -178.94112
  508 Torsion                 78    75    72    81         178.11290
  509 Torsion                 78    77    76    79         177.97737
  510 Torsion                 79    76    73    82           0.40401
  511 Torsion                 81    72    73    82           1.17671
  512 Torsion                 83    71    94    95         -55.23722
  513 Torsion                 83    71    94    96          66.55204
  514 Torsion                 83    71    94    97        -174.96003
  515 Torsion                 83    84    86    90          -0.29284
  516 Torsion                 83    84    86    91         179.43083
  517 Torsion                 83    85    88    90           1.00267
  518 Torsion                 83    85    88    92        -176.84543
  519 Torsion                 84    83    71    94          27.15748
  520 Torsion                 84    83    85    88          -3.29841
  521 Torsion                 84    83    85    89        -179.77206
  522 Torsion                 84    86    90    88          -2.08367
  523 Torsion                 84    86    90    93         177.20745
  524 Torsion                 85    83    71    94        -151.67772
  525 Torsion                 85    83    84    86           2.93039
  526 Torsion                 85    83    84    87        -176.22256
  527 Torsion                 85    88    90    86           1.73207
  528 Torsion                 85    88    90    93        -177.55858
  529 Torsion                 86    90    88    92         179.56257
  530 Torsion                 87    84    86    90         178.87212
  531 Torsion                 87    84    86    91          -1.40420
  532 Torsion                 88    90    86    91         178.19397
  533 Torsion                 89    85    88    90         177.37640
  534 Torsion                 89    85    88    92          -0.47170
  535 Torsion                 91    86    90    93          -2.51491
  536 Torsion                 92    88    90    93           0.27191


            XYZ format geometry
            -------------------
    97
 geometry
 C                     1.37081550     0.83462006    -1.19244307
 O                     1.23116797     1.51432740    -2.18208976
 Ni                    0.13079379    -0.45140218    -0.78821104
 C                    -1.17545043     0.40091070     0.31796245
 N                    -2.07494457    -0.39591783     0.92108521
 N                    -1.55290148     1.66006454     0.55039518
 C                    -3.11283144     0.32092575     1.66290314
 C                    -1.96753576    -1.81951693     0.93369746
 C                    -2.83512172     1.77003353     1.25656202
 C                    -0.87839434     2.82992777     0.08341802
 H                    -4.10507417    -0.02173257     1.36538968
 H                    -3.00194412     0.15428919     2.73784297
 C                    -2.56175797    -2.54770517    -0.10215204
 C                    -1.27796682    -2.43736300     1.98315791
 H                    -3.59720812     2.16723851     0.58143138
 H                    -2.74865697     2.44580029     2.10772394
 C                    -0.04393078     3.50756544     0.97666276
 C                    -1.09539545     3.26712464    -1.22597567
 C                    -2.40577392    -3.92985189    -0.09525326
 C                    -3.37885263    -1.87635543    -1.18888941
 C                    -1.16287828    -3.82181771     1.95813230
 C                    -0.67526271    -1.64100665     3.12400524
 C                     0.62454253     4.63335844     0.51017945
 C                     0.12524201     3.06533081     2.41889778
 C                    -0.40524439     4.39605042    -1.64853194
 C                    -2.08012852     2.57461687    -2.14959995
 C                    -1.70888662    -4.56059671     0.92067920
 H                    -2.83358302    -4.51913510    -0.89672241
 C                    -4.84654290    -2.30435791    -1.09561260
 C                    -2.80765116    -2.15162090    -2.57981089
 H                    -3.33505685    -0.79762134    -1.02353364
 H                    -0.62143724    -4.32778355     2.74814743
 C                     0.82448944    -1.89946193     3.26364739
 C                    -1.40813807    -1.94001482     4.43448046
 H                    -0.79833363    -0.57943592     2.89895994
 C                     0.45303429     5.06741179    -0.79338618
 H                     1.29080598     5.17224943     1.17298789
 C                    -0.42207191     4.12184322     3.38308947
 C                     1.58129468     2.73791912     2.74539688
 H                    -0.45172456     2.14831288     2.56082311
 H                    -0.53014247     4.74819985    -2.66437183
 C                    -1.51652778     2.32157127    -3.54769734
 C                    -3.37450354     3.39050825    -2.24114364
 H                    -2.31872346     1.60075354    -1.71557896
 H                    -1.58632891    -5.63588389     0.90250845
 H                    -5.26225132    -2.09467516    -0.10784554
 H                    -4.95341420    -3.37543096    -1.27842708
 H                    -5.44625602    -1.77652781    -1.83921802
 H                    -1.76299988    -1.84191187    -2.64383092
 H                    -3.38052972    -1.61263125    -3.33691151
 H                    -2.85538601    -3.21558898    -2.82079642
 H                     1.34473757    -1.68950774     2.32975277
 H                     1.02539842    -2.93794330     3.53410056
 H                     1.24728296    -1.26280788     4.04317754
 H                    -2.47950623    -1.74764584     4.34865832
 H                    -1.01155832    -1.32603266     5.24500352
 H                    -1.28381844    -2.98784685     4.71550851
 H                     0.99036878     5.93899683    -1.14531893
 H                    -1.46736814     4.35940118     3.17525418
 H                     0.14803315     5.04970839     3.30464595
 H                    -0.34677700     3.77165336     4.41455961
 H                     1.97089015     1.97238434     2.07686190
 H                     1.66752130     2.37631664     3.77250479
 H                     2.21524903     3.62149791     2.64810704
 H                    -0.56305017     1.80182516    -3.49027543
 H                    -1.36583274     3.25794180    -4.08937011
 H                    -2.22159729     1.72072905    -4.12606452
 H                    -3.81689493     3.57359413    -1.25994675
 H                    -4.10964235     2.87282787    -2.86062154
 H                    -3.17515228     4.36286026    -2.69719000
 N                     0.98398818    -1.58891260    -1.94011417
 C                     4.78105626     1.48055626     1.29945491
 C                     4.42757385     2.40767374     0.32574655
 H                     4.35951604    -0.43611298     2.16912697
 C                     4.07080392     0.29349904     1.42289692
 C                     3.34402886     2.16105984    -0.49928853
 C                     2.60155469     0.99437740    -0.34588414
 C                     2.98039505     0.05010806     0.59913145
 H                     3.04049681     2.86040649    -1.26778361
 H                     2.42531562    -0.87642142     0.67949717
 H                     5.61289990     1.68546698     1.96153185
 H                     4.99309373     3.32441690     0.21537323
 C                     1.95152998    -2.48795499    -1.50437439
 C                     3.19995033    -2.67393368    -2.11881650
 C                     1.65952690    -3.28576035    -0.38725724
 C                     4.07406708    -3.65395208    -1.66754669
 H                     3.50156001    -2.04453626    -2.94494587
 C                     2.53129664    -4.26390563     0.05223886
 H                     0.69551209    -3.15071866     0.09075296
 C                     3.74412138    -4.47145241    -0.59660234
 H                     5.02784250    -3.78196763    -2.16641180
 H                     2.24596683    -4.89322711     0.88748371
 H                     4.41181126    -5.26197615    -0.28010476
 C                     1.00344453    -1.26838146    -3.35712145
 H                     1.96123945    -0.89281446    -3.73369580
 H                     0.73723538    -2.15873739    -3.93978953
 H                     0.26538229    -0.49410987    -3.56161673

 ==============================================================================
                                internuclear distances
 ------------------------------------------------------------------------------
       center one      |      center two      | atomic units |  angstroms
 ------------------------------------------------------------------------------
    2 O                |   1 C                |     2.28407  |     1.20868
    3 Ni               |   1 C                |     3.46130  |     1.83164
    4 C                |   3 Ni               |     3.61345  |     1.91215
    5 N                |   4 C                |     2.54081  |     1.34454
    6 N                |   4 C                |     2.52260  |     1.33490
    7 C                |   5 N                |     2.76531  |     1.46334
    8 C                |   5 N                |     2.69796  |     1.42770
    9 C                |   6 N                |     2.77401  |     1.46794
    9 C                |   7 C                |     2.89205  |     1.53041
   10 C                |   6 N                |     2.70013  |     1.42885
   11 H                |   7 C                |     2.06186  |     1.09109
   12 H                |   7 C                |     2.06626  |     1.09342
   13 C                |   8 C                |     2.64315  |     1.39869
   14 C                |   8 C                |     2.64468  |     1.39950
   15 H                |   9 C                |     2.06521  |     1.09286
   16 H                |   9 C                |     2.06025  |     1.09024
   17 C                |  10 C                |     2.64116  |     1.39764
   18 C                |  10 C                |     2.64071  |     1.39741
   19 C                |  13 C                |     2.62849  |     1.39094
   20 C                |  13 C                |     2.86551  |     1.51636
   21 C                |  14 C                |     2.62569  |     1.38946
   22 C                |  14 C                |     2.86527  |     1.51623
   23 C                |  17 C                |     2.62656  |     1.38992
   24 C                |  17 C                |     2.86855  |     1.51797
   25 C                |  18 C                |     2.62484  |     1.38901
   26 C                |  18 C                |     2.86737  |     1.51735
   27 C                |  19 C                |     2.61549  |     1.38406
   27 C                |  21 C                |     2.61864  |     1.38572
   28 H                |  19 C                |     2.04635  |     1.08288
   29 C                |  20 C                |     2.89443  |     1.53167
   30 C                |  20 C                |     2.88869  |     1.52863
   31 H                |  20 C                |     2.06398  |     1.09221
   32 H                |  21 C                |     2.04692  |     1.08318
   33 C                |  22 C                |     2.88798  |     1.52825
   34 C                |  22 C                |     2.89311  |     1.53097
   35 H                |  22 C                |     2.06381  |     1.09212
   36 C                |  23 C                |     2.61650  |     1.38459
   36 C                |  25 C                |     2.61756  |     1.38515
   37 H                |  23 C                |     2.04722  |     1.08334
   38 C                |  24 C                |     2.89408  |     1.53148
   39 C                |  24 C                |     2.88695  |     1.52771
   40 H                |  24 C                |     2.06487  |     1.09268
   41 H                |  25 C                |     2.04540  |     1.08238
   42 C                |  26 C                |     2.88847  |     1.52851
   43 C                |  26 C                |     2.89657  |     1.53280
   44 H                |  26 C                |     2.06466  |     1.09257
   45 H                |  27 C                |     2.04544  |     1.08240
   46 H                |  29 C                |     2.06358  |     1.09200
   47 H                |  29 C                |     2.06321  |     1.09181
   48 H                |  29 C                |     2.06249  |     1.09143
   49 H                |  30 C                |     2.06259  |     1.09147
   50 H                |  30 C                |     2.06309  |     1.09174
   51 H                |  30 C                |     2.06351  |     1.09196
   52 H                |  33 C                |     2.05876  |     1.08945
   53 H                |  33 C                |     2.06314  |     1.09177
   54 H                |  33 C                |     2.06296  |     1.09167
   55 H                |  34 C                |     2.06335  |     1.09188
   56 H                |  34 C                |     2.06248  |     1.09142
   57 H                |  34 C                |     2.06351  |     1.09196
   58 H                |  36 C                |     2.04601  |     1.08270
   59 H                |  38 C                |     2.06342  |     1.09191
   60 H                |  38 C                |     2.06327  |     1.09184
   61 H                |  38 C                |     2.06338  |     1.09189
   62 H                |  39 C                |     2.05691  |     1.08847
   63 H                |  39 C                |     2.06417  |     1.09231
   64 H                |  39 C                |     2.06324  |     1.09182
   65 H                |  42 C                |     2.05499  |     1.08745
   66 H                |  42 C                |     2.06397  |     1.09220
   67 H                |  42 C                |     2.06374  |     1.09208
   68 H                |  43 C                |     2.06316  |     1.09178
   69 H                |  43 C                |     2.06333  |     1.09187
   70 H                |  43 C                |     2.06421  |     1.09233
   71 N                |   3 Ni               |     3.45812  |     1.82996
   73 C                |  72 C                |     2.62706  |     1.39018
   75 C                |  72 C                |     2.62448  |     1.38881
   75 C                |  74 H                |     2.04628  |     1.08284
   76 C                |  73 C                |     2.61546  |     1.38404
   77 C                |   1 C                |     2.83893  |     1.50230
   77 C                |  76 C                |     2.62933  |     1.39138
   78 C                |  75 C                |     2.62313  |     1.38810
   78 C                |  77 C                |     2.62408  |     1.38860
   79 H                |  76 C                |     2.04562  |     1.08250
   80 H                |  78 C                |     2.04670  |     1.08306
   81 H                |  72 C                |     2.04606  |     1.08273
   82 H                |  73 C                |     2.04616  |     1.08278
   83 C                |  71 N                |     2.62820  |     1.39079
   84 C                |  83 C                |     2.65281  |     1.40381
   85 C                |  83 C                |     2.65216  |     1.40346
   86 C                |  84 C                |     2.62404  |     1.38858
   87 H                |  84 C                |     2.04370  |     1.08148
   88 C                |  85 C                |     2.61159  |     1.38199
   89 H                |  85 C                |     2.04933  |     1.08446
   90 C                |  86 C                |     2.62127  |     1.38712
   90 C                |  88 C                |     2.62870  |     1.39105
   91 H                |  86 C                |     2.04836  |     1.08395
   92 H                |  88 C                |     2.04849  |     1.08402
   93 H                |  90 C                |     2.04484  |     1.08209
   94 C                |  71 N                |     2.74565  |     1.45294
   95 H                |  94 C                |     2.07029  |     1.09555
   96 H                |  94 C                |     2.07277  |     1.09686
   97 H                |  94 C                |     2.05802  |     1.08906
 ------------------------------------------------------------------------------
                         number of included internuclear distances:        101
 ==============================================================================



 ==============================================================================
                                 internuclear angles
 ------------------------------------------------------------------------------
        center 1       |       center 2       |       center 3       |  degrees
 ------------------------------------------------------------------------------
    2 O                |   1 C                |   3 Ni               |   119.82
    2 O                |   1 C                |  77 C                |   119.75
    3 Ni               |   1 C                |  77 C                |   120.33
    1 C                |   3 Ni               |   4 C                |   106.09
    1 C                |   3 Ni               |  71 N                |    88.96
    4 C                |   3 Ni               |  71 N                |   163.68
    3 Ni               |   4 C                |   5 N                |   116.89
    3 Ni               |   4 C                |   6 N                |   135.59
    5 N                |   4 C                |   6 N                |   106.96
    4 C                |   5 N                |   7 C                |   114.30
    4 C                |   5 N                |   8 C                |   123.00
    7 C                |   5 N                |   8 C                |   122.50
    4 C                |   6 N                |   9 C                |   113.67
    4 C                |   6 N                |  10 C                |   125.58
    9 C                |   6 N                |  10 C                |   120.55
    5 N                |   7 C                |   9 C                |   101.57
    5 N                |   7 C                |  11 H                |   110.67
    5 N                |   7 C                |  12 H                |   110.60
    9 C                |   7 C                |  11 H                |   112.95
    9 C                |   7 C                |  12 H                |   112.76
   11 H                |   7 C                |  12 H                |   108.21
    5 N                |   8 C                |  13 C                |   118.73
    5 N                |   8 C                |  14 C                |   118.94
   13 C                |   8 C                |  14 C                |   122.33
    6 N                |   9 C                |   7 C                |   102.43
    6 N                |   9 C                |  15 H                |   109.83
    6 N                |   9 C                |  16 H                |   110.65
    7 C                |   9 C                |  15 H                |   112.43
    7 C                |   9 C                |  16 H                |   113.20
   15 H                |   9 C                |  16 H                |   108.20
    6 N                |  10 C                |  17 C                |   118.03
    6 N                |  10 C                |  18 C                |   119.28
   17 C                |  10 C                |  18 C                |   122.68
    8 C                |  13 C                |  19 C                |   117.78
    8 C                |  13 C                |  20 C                |   121.95
   19 C                |  13 C                |  20 C                |   120.26
    8 C                |  14 C                |  21 C                |   117.85
    8 C                |  14 C                |  22 C                |   121.88
   21 C                |  14 C                |  22 C                |   120.26
   10 C                |  17 C                |  23 C                |   117.73
   10 C                |  17 C                |  24 C                |   122.18
   23 C                |  17 C                |  24 C                |   120.08
   10 C                |  18 C                |  25 C                |   117.53
   10 C                |  18 C                |  26 C                |   121.89
   25 C                |  18 C                |  26 C                |   120.55
   13 C                |  19 C                |  27 C                |   120.86
   13 C                |  19 C                |  28 H                |   119.52
   27 C                |  19 C                |  28 H                |   119.62
   13 C                |  20 C                |  29 C                |   110.43
   13 C                |  20 C                |  30 C                |   111.78
   13 C                |  20 C                |  31 H                |   107.89
   29 C                |  20 C                |  30 C                |   111.29
   29 C                |  20 C                |  31 H                |   107.77
   30 C                |  20 C                |  31 H                |   107.50
   14 C                |  21 C                |  27 C                |   120.80
   14 C                |  21 C                |  32 H                |   119.58
   27 C                |  21 C                |  32 H                |   119.60
   14 C                |  22 C                |  33 C                |   111.72
   14 C                |  22 C                |  34 C                |   110.56
   14 C                |  22 C                |  35 H                |   108.10
   33 C                |  22 C                |  34 C                |   111.01
   33 C                |  22 C                |  35 H                |   107.09
   34 C                |  22 C                |  35 H                |   108.20
   17 C                |  23 C                |  36 C                |   120.69
   17 C                |  23 C                |  37 H                |   119.56
   36 C                |  23 C                |  37 H                |   119.75
   17 C                |  24 C                |  38 C                |   110.94
   17 C                |  24 C                |  39 C                |   111.82
   17 C                |  24 C                |  40 H                |   108.00
   38 C                |  24 C                |  39 C                |   110.73
   38 C                |  24 C                |  40 H                |   107.97
   39 C                |  24 C                |  40 H                |   107.20
   18 C                |  25 C                |  36 C                |   120.93
   18 C                |  25 C                |  41 H                |   119.51
   36 C                |  25 C                |  41 H                |   119.55
   18 C                |  26 C                |  42 C                |   113.14
   18 C                |  26 C                |  43 C                |   109.97
   18 C                |  26 C                |  44 H                |   107.86
   42 C                |  26 C                |  43 C                |   110.17
   42 C                |  26 C                |  44 H                |   107.24
   43 C                |  26 C                |  44 H                |   108.29
   19 C                |  27 C                |  21 C                |   120.33
   19 C                |  27 C                |  45 H                |   119.83
   21 C                |  27 C                |  45 H                |   119.84
   20 C                |  29 C                |  46 H                |   111.48
   20 C                |  29 C                |  47 H                |   110.96
   20 C                |  29 C                |  48 H                |   110.48
   46 H                |  29 C                |  47 H                |   107.61
   46 H                |  29 C                |  48 H                |   108.32
   47 H                |  29 C                |  48 H                |   107.85
   20 C                |  30 C                |  49 H                |   111.09
   20 C                |  30 C                |  50 H                |   110.24
   20 C                |  30 C                |  51 H                |   111.10
   49 H                |  30 C                |  50 H                |   108.75
   49 H                |  30 C                |  51 H                |   107.78
   50 H                |  30 C                |  51 H                |   107.76
   22 C                |  33 C                |  52 H                |   110.96
   22 C                |  33 C                |  53 H                |   111.35
   22 C                |  33 C                |  54 H                |   110.28
   52 H                |  33 C                |  53 H                |   107.93
   52 H                |  33 C                |  54 H                |   108.35
   53 H                |  33 C                |  54 H                |   107.85
   22 C                |  34 C                |  55 H                |   111.59
   22 C                |  34 C                |  56 H                |   110.60
   22 C                |  34 C                |  57 H                |   110.68
   55 H                |  34 C                |  56 H                |   108.41
   55 H                |  34 C                |  57 H                |   107.52
   56 H                |  34 C                |  57 H                |   107.90
   23 C                |  36 C                |  25 C                |   120.40
   23 C                |  36 C                |  58 H                |   119.80
   25 C                |  36 C                |  58 H                |   119.80
   24 C                |  38 C                |  59 H                |   111.86
   24 C                |  38 C                |  60 H                |   110.76
   24 C                |  38 C                |  61 H                |   110.42
   59 H                |  38 C                |  60 H                |   107.54
   59 H                |  38 C                |  61 H                |   108.40
   60 H                |  38 C                |  61 H                |   107.72
   24 C                |  39 C                |  62 H                |   111.14
   24 C                |  39 C                |  63 H                |   110.31
   24 C                |  39 C                |  64 H                |   111.16
   62 H                |  39 C                |  63 H                |   108.45
   62 H                |  39 C                |  64 H                |   107.86
   63 H                |  39 C                |  64 H                |   107.81
   26 C                |  42 C                |  65 H                |   110.74
   26 C                |  42 C                |  66 H                |   111.26
   26 C                |  42 C                |  67 H                |   109.72
   65 H                |  42 C                |  66 H                |   108.36
   65 H                |  42 C                |  67 H                |   109.33
   66 H                |  42 C                |  67 H                |   107.34
   26 C                |  43 C                |  68 H                |   112.20
   26 C                |  43 C                |  69 H                |   110.49
   26 C                |  43 C                |  70 H                |   110.16
   68 H                |  43 C                |  69 H                |   108.46
   68 H                |  43 C                |  70 H                |   107.45
   69 H                |  43 C                |  70 H                |   107.94
    3 Ni               |  71 N                |  83 C                |   121.94
    3 Ni               |  71 N                |  94 C                |   118.88
   83 C                |  71 N                |  94 C                |   116.03
   73 C                |  72 C                |  75 C                |   120.15
   73 C                |  72 C                |  81 H                |   119.83
   75 C                |  72 C                |  81 H                |   120.02
   72 C                |  73 C                |  76 C                |   119.85
   72 C                |  73 C                |  82 H                |   120.21
   76 C                |  73 C                |  82 H                |   119.93
   72 C                |  75 C                |  74 H                |   120.05
   72 C                |  75 C                |  78 C                |   119.92
   74 H                |  75 C                |  78 C                |   120.02
   73 C                |  76 C                |  77 C                |   120.10
   73 C                |  76 C                |  79 H                |   121.84
   77 C                |  76 C                |  79 H                |   118.06
    1 C                |  77 C                |  76 C                |   117.66
    1 C                |  77 C                |  78 C                |   122.32
   76 C                |  77 C                |  78 C                |   119.98
   75 C                |  78 C                |  77 C                |   119.93
   75 C                |  78 C                |  80 H                |   120.57
   77 C                |  78 C                |  80 H                |   119.50
   71 N                |  83 C                |  84 C                |   124.55
   71 N                |  83 C                |  85 C                |   118.17
   84 C                |  83 C                |  85 C                |   117.27
   83 C                |  84 C                |  86 C                |   120.74
   83 C                |  84 C                |  87 H                |   120.35
   86 C                |  84 C                |  87 H                |   118.91
   83 C                |  85 C                |  88 C                |   121.62
   83 C                |  85 C                |  89 H                |   117.71
   88 C                |  85 C                |  89 H                |   120.58
   84 C                |  86 C                |  90 C                |   121.14
   84 C                |  86 C                |  91 H                |   119.19
   90 C                |  86 C                |  91 H                |   119.67
   85 C                |  88 C                |  90 C                |   120.48
   85 C                |  88 C                |  92 H                |   119.33
   90 C                |  88 C                |  92 H                |   120.15
   86 C                |  90 C                |  88 C                |   118.66
   86 C                |  90 C                |  93 H                |   120.64
   88 C                |  90 C                |  93 H                |   120.70
   71 N                |  94 C                |  95 H                |   115.00
   71 N                |  94 C                |  96 H                |   109.62
   71 N                |  94 C                |  97 H                |   109.32
   95 H                |  94 C                |  96 H                |   107.93
   95 H                |  94 C                |  97 H                |   106.51
   96 H                |  94 C                |  97 H                |   108.23
 ------------------------------------------------------------------------------
                            number of included internuclear angles:        180
 ==============================================================================



                      Basis "ao basis" -> "" (cartesian)
                      -----
  C (Carbon)
  ----------
            Exponent  Coefficients 
       -------------- ---------------------------------------------------------
  1 S  1.23840169E+03  0.005457
  1 S  1.86290050E+02  0.040638
  1 S  4.22511763E+01  0.180256
  1 S  1.16765579E+01  0.463151
  1 S  3.59305065E+00  0.440872

  2 S  4.02451474E-01  1.000000

  3 S  1.30901827E-01  1.000000

  4 P  9.46809706E+00  0.038388
  4 P  2.01035451E+00  0.211170
  4 P  5.47710047E-01  0.513282

  5 P  1.52686138E-01  1.000000

  H (Hydrogen)
  ------------
            Exponent  Coefficients 
       -------------- ---------------------------------------------------------
  1 S  1.30107010E+01  0.019682
  1 S  1.96225720E+00  0.137965
  1 S  4.44537960E-01  0.478319

  2 S  1.21949620E-01  1.000000

  O (Oxygen)
  ----------
            Exponent  Coefficients 
       -------------- ---------------------------------------------------------
  1 S  2.26617678E+03 -0.005343
  1 S  3.40870102E+02 -0.039890
  1 S  7.73631352E+01 -0.178539
  1 S  2.14796449E+01 -0.464277
  1 S  6.65894331E+00 -0.443097

  2 S  8.09759757E-01  1.000000

  3 S  2.55307722E-01  1.000000

  4 P  1.77215043E+01  0.043395
  4 P  3.86355054E+00  0.230941
  4 P  1.04809209E+00  0.513753

  5 P  2.76415444E-01  1.000000

  N (Nitrogen)
  ------------
            Exponent  Coefficients 
       -------------- ---------------------------------------------------------
  1 S  1.71284159E+03 -0.005393
  1 S  2.57648127E+02 -0.040222
  1 S  5.84582459E+01 -0.179311
[...]
  ----- ------------  ---------------      ----- ------------  ---------------
   487     12.218885  85 C  s               434    -10.303589  76 C  s         
   507     -9.536028  88 C  s               425      9.450036  75 C  s         
   414      9.205755  73 C  s               469     -8.850753  83 C  s         
   496     -8.828183  86 C  s               518      8.591524  90 C  s         
   405     -8.414891  72 C  s               452     -8.052805  78 C  s         

 Vector  526  Occ=0.000000D+00  E= 1.727059D+00
              MO Center=  1.2D+00, -4.2D-01, -6.7D-02, r^2= 1.7D+01
   Bfn.  Coefficient  Atom+Function         Bfn.  Coefficient  Atom+Function  
  ----- ------------  ---------------      ----- ------------  ---------------
   452     11.841046  78 C  s               425    -10.924418  75 C  s         
   414    -10.840653  73 C  s               126    -10.728632  13 C  s         
   184     10.614127  21 C  s               434     10.562860  76 C  s         
    95     10.500203   8 C  s               166     10.294325  19 C  s         
   405     10.239935  72 C  s               135     -9.653938  14 C  s         

 Vector  527  Occ=0.000000D+00  E= 1.761393D+00
              MO Center=  2.3D-01,  5.4D-01, -9.1D-01, r^2= 1.3D+01
   Bfn.  Coefficient  Atom+Function         Bfn.  Coefficient  Atom+Function  
  ----- ------------  ---------------      ----- ------------  ---------------
    22     18.284656   3 Ni s               113     10.249652  10 C  s         
   220      9.790411  25 C  s               157     -8.764352  18 C  s         
   202      8.567311  23 C  s               148     -8.425091  17 C  s         
   291     -7.988371  36 C  s               118      7.673395  10 C  py        
    23     -6.826265   3 Ni s               154      6.589297  17 C  pz        

 Vector  528  Occ=0.000000D+00  E= 1.768258D+00
              MO Center= -4.7D-01,  3.7D-01,  5.3D-02, r^2= 1.5D+01
   Bfn.  Coefficient  Atom+Function         Bfn.  Coefficient  Atom+Function  
  ----- ------------  ---------------      ----- ------------  ---------------
   100     10.454259   8 C  py              202     10.344510  23 C  s         
   157    -10.040494  18 C  s               220      9.745463  25 C  s         
   166     -9.602131  19 C  s               184     -9.307584  21 C  s         
   118      9.093911  10 C  py              135      8.778188  14 C  s         
   291     -8.581227  36 C  s               113      8.536224  10 C  s         

 Vector  529  Occ=0.000000D+00  E= 1.885669D+00
              MO Center= -1.4D+00,  4.0D-01,  4.7D-01, r^2= 6.3D+00
   Bfn.  Coefficient  Atom+Function         Bfn.  Coefficient  Atom+Function  
  ----- ------------  ---------------      ----- ------------  ---------------
    22      5.901714   3 Ni s               100     -4.547939   8 C  py        
    73     -4.150780   5 N  py               86      4.051559   7 C  s         
   104     -4.050478   9 C  s               507     -3.653949  88 C  s         
    81     -3.337185   6 N  px               68      3.300682   5 N  s         
   487      3.142355  85 C  s                23     -3.051519   3 Ni s         

 Vector  530  Occ=0.000000D+00  E= 1.934006D+00
              MO Center=  7.6D-01,  5.3D-01, -1.4D+00, r^2= 6.4D+00
   Bfn.  Coefficient  Atom+Function         Bfn.  Coefficient  Atom+Function  
  ----- ------------  ---------------      ----- ------------  ---------------
    22     13.714564   3 Ni s                23     -6.106166   3 Ni s         
   113     -6.004632  10 C  s                12     -5.913092   2 O  s         
   157      4.471658  18 C  s               487      4.072487  85 C  s         
   148      3.525314  17 C  s                54     -3.430275   3 Ni dyy       
    56     -3.153260   3 Ni dzz               3      3.067734   1 C  s         

 Vector  531  Occ=0.000000D+00  E= 2.855633D+00
              MO Center=  1.0D-01, -4.4D-01, -9.5D-01, r^2= 2.5D+00
   Bfn.  Coefficient  Atom+Function         Bfn.  Coefficient  Atom+Function  
  ----- ------------  ---------------      ----- ------------  ---------------
    22      9.003407   3 Ni s                21      5.727848   3 Ni s         
    23     -4.768181   3 Ni s                20     -2.971838   3 Ni s         
    45     -2.669036   3 Ni dxx              48     -2.672607   3 Ni dyy       
    50     -2.664986   3 Ni dzz             487      1.701446  85 C  s         
    34      1.614238   3 Ni py              229     -1.195634  26 C  s         

 Vector  532  Occ=0.000000D+00  E= 3.092653D+00
              MO Center=  2.9D-01, -4.8D-01, -6.5D-01, r^2= 1.3D+00
   Bfn.  Coefficient  Atom+Function         Bfn.  Coefficient  Atom+Function  
  ----- ------------  ---------------      ----- ------------  ---------------
    22      4.483415   3 Ni s                21      1.523243   3 Ni s         
    23     -1.268478   3 Ni s                33      1.179027   3 Ni px        
     7      1.160521   1 C  px              447      1.141895  77 C  px        
    32     -1.079967   3 Ni pz               20     -1.007086   3 Ni s         
   425     -0.985627  75 C  s                 9      0.975543   1 C  pz        

 Vector  533  Occ=0.000000D+00  E= 3.281618D+00
              MO Center=  2.6D-01, -3.8D-01, -8.3D-01, r^2= 1.3D+00
   Bfn.  Coefficient  Atom+Function         Bfn.  Coefficient  Atom+Function  
  ----- ------------  ---------------      ----- ------------  ---------------
   448     -2.316692  77 C  py              434      2.255843  76 C  s         
   452     -1.777555  78 C  s                 8      1.670387   1 C  py        
    31      1.362046   3 Ni py                3     -1.349151   1 C  s         
    28     -1.128670   3 Ni py              447     -0.971460  77 C  px        
   449      0.917388  77 C  pz                9     -0.873690   1 C  pz        

 Vector  534  Occ=0.000000D+00  E= 3.349628D+00
              MO Center=  9.6D-02, -4.7D-01, -7.4D-01, r^2= 1.3D+00
   Bfn.  Coefficient  Atom+Function         Bfn.  Coefficient  Atom+Function  
  ----- ------------  ---------------      ----- ------------  ---------------
    64      1.545575   4 C  py               77     -1.388926   6 N  s         
    63     -1.317231   4 C  px              478     -1.203300  84 C  s         
    30     -1.120150   3 Ni px               32      0.980670   3 Ni pz        
   473      0.977487  83 C  px               35      0.956608   3 Ni pz        
    65      0.942082   4 C  pz               33     -0.936431   3 Ni px        

 Vector  535  Occ=0.000000D+00  E= 4.764871D+00
              MO Center=  1.2D-01, -4.5D-01, -7.9D-01, r^2= 6.2D-01
   Bfn.  Coefficient  Atom+Function         Bfn.  Coefficient  Atom+Function  
  ----- ------------  ---------------      ----- ------------  ---------------
    49      1.282809   3 Ni dyz              46      1.164586   3 Ni dxy       
    43     -1.023536   3 Ni dyz              40     -0.933806   3 Ni dxy       
    55     -0.741054   3 Ni dyz             487      0.654003  85 C  s         
    52     -0.624991   3 Ni dxy               3      0.601683   1 C  s         
    45     -0.595826   3 Ni dxx              33     -0.547808   3 Ni px        

 Vector  536  Occ=0.000000D+00  E= 4.789493D+00
              MO Center=  1.3D-01, -4.7D-01, -7.7D-01, r^2= 6.6D-01
   Bfn.  Coefficient  Atom+Function         Bfn.  Coefficient  Atom+Function  
  ----- ------------  ---------------      ----- ------------  ---------------
   443      1.292607  77 C  s                95      1.169938   8 C  s         
    45     -1.078145   3 Ni dxx               9     -1.047111   1 C  pz        
    22      0.967449   3 Ni s                49     -0.941003   3 Ni dyz       
     3     -0.895310   1 C  s               135     -0.855236  14 C  s         
     7     -0.804610   1 C  px              447     -0.801207  77 C  px        

 Vector  537  Occ=0.000000D+00  E= 4.821484D+00
              MO Center=  1.4D-01, -4.4D-01, -8.0D-01, r^2= 6.5D-01
   Bfn.  Coefficient  Atom+Function         Bfn.  Coefficient  Atom+Function  
  ----- ------------  ---------------      ----- ------------  ---------------
    64     -1.316306   4 C  py               22      1.278848   3 Ni s         
    48     -1.220864   3 Ni dyy               3     -1.084362   1 C  s         
    68     -1.046225   5 N  s                77      0.902052   6 N  s         
    33      0.880664   3 Ni px               56     -0.854141   3 Ni dzz       
    42      0.846352   3 Ni dyy              50      0.791566   3 Ni dzz       

 Vector  538  Occ=0.000000D+00  E= 4.864890D+00
              MO Center=  1.1D-01, -4.7D-01, -7.8D-01, r^2= 6.8D-01
   Bfn.  Coefficient  Atom+Function         Bfn.  Coefficient  Atom+Function  
  ----- ------------  ---------------      ----- ------------  ---------------
    22      3.830821   3 Ni s                47      1.695831   3 Ni dxz       
    41     -1.309957   3 Ni dxz              53     -1.208345   3 Ni dxz       
     3     -1.121709   1 C  s                46     -1.093893   3 Ni dxy       
    34      0.961366   3 Ni py               95     -0.882474   8 C  s         
    40      0.845924   3 Ni dxy              56     -0.793404   3 Ni dzz       

 Vector  539  Occ=0.000000D+00  E= 5.051651D+00
              MO Center=  1.3D-01, -4.6D-01, -7.9D-01, r^2= 7.0D-01
   Bfn.  Coefficient  Atom+Function         Bfn.  Coefficient  Atom+Function  
  ----- ------------  ---------------      ----- ------------  ---------------
    22      1.645374   3 Ni s                46      1.433754   3 Ni dxy       
    52     -1.380162   3 Ni dxy              49     -1.333490   3 Ni dyz       
    55      1.281701   3 Ni dyz              47      1.118550   3 Ni dxz       
    53     -1.070482   3 Ni dxz              40     -1.045540   3 Ni dxy       
    43      0.973636   3 Ni dyz              63     -0.952049   4 C  px        

 Vector  540  Occ=0.000000D+00  E= 1.019699D+01
              MO Center=  1.4D-01, -4.6D-01, -7.9D-01, r^2= 6.3D-01
   Bfn.  Coefficient  Atom+Function         Bfn.  Coefficient  Atom+Function  
  ----- ------------  ---------------      ----- ------------  ---------------
    21     27.672225   3 Ni s                20    -17.430538   3 Ni s         
    45     -7.517971   3 Ni dxx              48     -7.510079   3 Ni dyy       
    50     -7.467393   3 Ni dzz              22      4.080199   3 Ni s         
    23     -1.918176   3 Ni s                19      1.506271   3 Ni s         
    56     -0.617444   3 Ni dzz              34      0.576549   3 Ni py        

 Vector  541  Occ=0.000000D+00  E= 4.988770D+01
              MO Center=  1.3D-01, -4.5D-01, -7.9D-01, r^2= 1.1D-01
   Bfn.  Coefficient  Atom+Function         Bfn.  Coefficient  Atom+Function  
  ----- ------------  ---------------      ----- ------------  ---------------
    20     21.379699   3 Ni s                21    -20.664975   3 Ni s         
    45      5.135356   3 Ni dxx              48      5.133026   3 Ni dyy       
    50      5.123600   3 Ni dzz              19     -4.349406   3 Ni s         
    39     -2.733847   3 Ni dxx              42     -2.733184   3 Ni dyy       
    44     -2.729987   3 Ni dzz              22     -1.825168   3 Ni s         

 Vector  542  Occ=0.000000D+00  E= 1.173793D+02
              MO Center=  1.3D-01, -4.5D-01, -7.9D-01, r^2= 2.9D-02
   Bfn.  Coefficient  Atom+Function         Bfn.  Coefficient  Atom+Function  
  ----- ------------  ---------------      ----- ------------  ---------------
    26      0.847169   3 Ni pz               24      0.556220   3 Ni px        
    25     -0.326930   3 Ni py               29     -0.320664   3 Ni pz        
    27     -0.210497   3 Ni px               32      0.166136   3 Ni pz        
    22     -0.152764   3 Ni s                28      0.123687   3 Ni py        
    30      0.109232   3 Ni px               33     -0.085690   3 Ni px        

 Vector  543  Occ=0.000000D+00  E= 1.175605D+02
              MO Center=  1.3D-01, -4.5D-01, -7.9D-01, r^2= 3.1D-02
   Bfn.  Coefficient  Atom+Function         Bfn.  Coefficient  Atom+Function  
  ----- ------------  ---------------      ----- ------------  ---------------
    25      1.002291   3 Ni py               28     -0.386847   3 Ni py        
    24      0.313678   3 Ni px               31      0.213443   3 Ni py        
   448     -0.185834  77 C  py               26      0.180850   3 Ni pz        
   434      0.175755  76 C  s               452     -0.148387  78 C  s         
     8      0.141311   1 C  py               27     -0.121102   3 Ni px        

 Vector  544  Occ=0.000000D+00  E= 1.175893D+02
              MO Center=  1.3D-01, -4.5D-01, -7.9D-01, r^2= 3.1D-02
   Bfn.  Coefficient  Atom+Function         Bfn.  Coefficient  Atom+Function  
  ----- ------------  ---------------      ----- ------------  ---------------
    24      0.853055   3 Ni px               26     -0.619956   3 Ni pz        
    27     -0.330795   3 Ni px               29      0.240462   3 Ni pz        
    30      0.185104   3 Ni px               25     -0.155109   3 Ni py        
    32     -0.134513   3 Ni pz               64     -0.117588   4 C  py        
    63      0.109324   4 C  px               77      0.108249   6 N  s         

 Vector  545  Occ=0.000000D+00  E= 6.766354D+02
              MO Center=  1.3D-01, -4.5D-01, -7.9D-01, r^2= 2.3D-02
   Bfn.  Coefficient  Atom+Function         Bfn.  Coefficient  Atom+Function  
  ----- ------------  ---------------      ----- ------------  ---------------
    20     28.876306   3 Ni s                21    -15.347452   3 Ni s         
    39     -7.285755   3 Ni dxx              42     -7.285826   3 Ni dyy       
    44     -7.286649   3 Ni dzz              19     -4.276116   3 Ni s         
    45      3.408510   3 Ni dxx              48      3.408742   3 Ni dyy       
    50      3.411541   3 Ni dzz              51      0.122302   3 Ni dxx       


 center of mass
 --------------
 x =   0.05827445 y =  -0.01744694 z =  -0.03504835

 moments of inertia (a.u.)
 ------------------
       24937.146018973286          -0.000000000000           0.000000000001
          -0.000000000000       20995.548971648619           0.000000000000
           0.000000000001           0.000000000000       29573.986804154156

     Multipole analysis of the density
     ---------------------------------

     L   x y z        total         alpha         beta         nuclear
     -   - - -        -----         -----         ----         -------
     0   0 0 0      0.000000   -172.000000   -172.000000    344.000000

     1   1 0 0     -2.054687      0.208478      0.208478     -2.471644
     1   0 1 0      0.721215     -3.904525     -3.904525      8.530264
     1   0 0 1      1.988079     -6.453475     -6.453475     14.895029

     2   2 0 0   -203.346524  -3673.936922  -3673.936922   7144.527320
     2   1 1 0      4.992873      0.614923      0.614923      3.763026
     2   1 0 1      3.822271    -47.737065    -47.737065     99.296402
     2   0 2 0   -207.763592  -4717.630450  -4717.630450   9227.497309
     2   0 1 1     -1.884384      2.769017      2.769017     -7.422418
     2   0 0 2   -208.225161  -2475.507381  -2475.507381   4742.789601


 Task  times  cpu:     3978.8s     wall:     3978.8s


                                NWChem Input Module
                                -------------------


 Summary of allocated global arrays
-----------------------------------
  No active global arrays


MA_summarize_allocated_blocks: starting scan ...
heap block 'gridpts', handle 102, address 0x592fc6f7be60:
	type of elements:		double precision
	number of elements:		203683869
	address of client space:	0x592fc6f7bec0
	index for client space:		129302195
	total number of bytes:		1629471056
MA_summarize_allocated_blocks: scan completed: 1 heap block, 0 stack blocks
MA usage statistics:

	allocation statistics:
					      heap	     stack
					      ----	     -----
	current number of blocks	         1	         0
	maximum number of blocks	        34	        58
	current total bytes		1629471056	         0
	maximum total bytes		1648842024	  48047784
	maximum total K-bytes		   1648843	     48048
	maximum total M-bytes		      1649	        49


                                     CITATION
                                     --------
                Please cite the following reference when publishing
                           results obtained with NWChem:

          E. Apra, E. J. Bylaska, W. A. de Jong, N. Govind, K. Kowalski,
       T. P. Straatsma, M. Valiev, H. J. J. van Dam, Y. Alexeev, J. Anchell,
       V. Anisimov, F. W. Aquino, R. Atta-Fynn, J. Autschbach, N. P. Bauman,
     J. C. Becca, D. E. Bernholdt, K. Bhaskaran-Nair, S. Bogatko, P. Borowski,
         J. Boschen, J. Brabec, A. Bruner, E. Cauet, Y. Chen, G. N. Chuev,
      C. J. Cramer, J. Daily, M. J. O. Deegan, T. H. Dunning Jr., M. Dupuis,
   K. G. Dyall, G. I. Fann, S. A. Fischer, A. Fonari, H. Fruchtl, L. Gagliardi,
      J. Garza, N. Gawande, S. Ghosh, K. Glaesemann, A. W. Gotz, J. Hammond,
       V. Helms, E. D. Hermes, K. Hirao, S. Hirata, M. Jacquelin, L. Jensen,
   B. G. Johnson, H. Jonsson, R. A. Kendall, M. Klemm, R. Kobayashi, V. Konkov,
      S. Krishnamoorthy, M. Krishnan, Z. Lin, R. D. Lins, R. J. Littlefield,
      A. J. Logsdail, K. Lopata, W. Ma, A. V. Marenich, J. Martin del Campo,
   D. Mejia-Rodriguez, J. E. Moore, J. M. Mullin, T. Nakajima, D. R. Nascimento,
    J. A. Nichols, P. J. Nichols, J. Nieplocha, A. Otero-de-la-Roza, B. Palmer,
    A. Panyala, T. Pirojsirikul, B. Peng, R. Peverati, J. Pittner, L. Pollack,
   R. M. Richard, P. Sadayappan, G. C. Schatz, W. A. Shelton, D. W. Silverstein,
   D. M. A. Smith, T. A. Soares, D. Song, M. Swart, H. L. Taylor, G. S. Thomas,
            V. Tipparaju, D. G. Truhlar, K. Tsemekhman, T. Van Voorhis,
      A. Vazquez-Mayagoitia, P. Verma, O. Villa, A. Vishnu, K. D. Vogiatzis,
        D. Wang, J. H. Weare, M. J. Williamson, T. L. Windus, K. Wolinski,
        A. T. Wong, Q. Wu, C. Yang, Q. Yu, M. Zacharias, Z. Zhang, Y. Zhao,
                                and R. J. Harrison
                        "NWChem: Past, present, and future
                         J. Chem. Phys. 152, 184102 (2020)
                               doi:10.1063/5.0004997

                                      AUTHORS
                                      -------
  E. Apra, E. J. Bylaska, N. Govind, K. Kowalski, M. Valiev, D. Mejia-Rodriguez,
       A. Kunitsa, N. P. Bauman, A. Panyala, W. A. de Jong, T. P. Straatsma,
   H. J. J. van Dam, D. Wang, T. L. Windus, J. Hammond, J. Autschbach, A. Woods,
    K. Bhaskaran-Nair, J. Brabec, K. Lopata, S. A. Fischer, S. Krishnamoorthy,
     M. Jacquelin, W. Ma, M. Klemm, O. Villa, Y. Chen, V. Anisimov, F. Aquino,
     S. Hirata, M. T. Hackler, E. Hermes, L. Jensen, J. E. Moore, J. C. Becca,
      V. Konjkov, T. Risthaus, M. Malagoli, A. Marenich, A. Otero-de-la-Roza,
        J. Mullin, P. Nichols, R. Peverati, J. Pittner, Y. Zhao, P.-D. Fan,
        A. Fonari, M. J. Williamson, R. J. Harrison, J. R. Rehr, M. Dupuis,
     D. Silverstein, D. M. A. Smith, J. Nieplocha, V. Tipparaju, M. Krishnan,
     B. E. Van Kuiken, A. Vazquez-Mayagoitia, M. Swart, Q. Wu, T. Van Voorhis,
     A. A. Auer, M. Nooijen, L. D. Crosby, E. Brown, G. Cisneros, G. I. Fann,
   H. Fruchtl, J. Garza, K. Hirao, R. A. Kendall, J. A. Nichols, K. Tsemekhman,
    K. Wolinski, J. Anchell, D. E. Bernholdt, P. Borowski, T. Clark, D. Clerc,
   H. Dachsel, M. J. O. Deegan, K. Dyall, D. Elwood, E. Glendening, M. Gutowski,
   A. C. Hess, J. Jaffe, B. G. Johnson, J. Ju, R. Kobayashi, R. Kutteh, Z. Lin,
   R. Littlefield, X. Long, B. Meng, T. Nakajima, S. Niu, L. Pollack, M. Rosing,
   K. Glaesemann, G. Sandrone, M. Stave, H. Taylor, G. Thomas, J. H. van Lenthe,
                               A. T. Wong, Z. Zhang.

 Total times  cpu:     3979.3s     wall:     3979.3s
