 argument  1 = nwchem.in
  NWChem w/ OpenMP: maximum threads =    1
                                         
                                         


             Northwest Computational Chemistry Package (NWChem) 7.2.3
             --------------------------------------------------------


                    Environmental Molecular Sciences Laboratory
                       Pacific Northwest National Laboratory
                                Richland, WA 99352

                              Copyright (c) 1994-2022
                       Pacific Northwest National Laboratory
                            Battelle Memorial Institute

             NWChem is an open-source computational chemistry package
                        distributed under the terms of the
                      Educational Community License (ECL) 2.0
             A copy of the license is included with this distribution
                              in the LICENSE.TXT file

                                  ACKNOWLEDGMENT
                                  --------------

            This software and its documentation were developed at the
            EMSL at Pacific Northwest National Laboratory, a multiprogram
            national laboratory, operated for the U.S. Department of Energy
            by Battelle under Contract Number DE-AC05-76RL01830. Support
            for this work was provided by the Department of Energy Office
            of Biological and Environmental Research, Office of Basic
            Energy Sciences, and the Office of Advanced Scientific Computing.


           Job information
           ---------------

    hostname        = 74dcb4bafe05
    program         = nwchem
    date            = Thu Jul  3 10:18:43 2025

    compiled        = Fri_May_02_22:05:35_2025
    source          = /opt/nwchem
    nwchem branch   = 7.2.3
    nwchem revision = N/A
    ga revision     = 5.9.1
    use scalapack   = T
    input           = nwchem.in
    prefix          = ni_singlepoint.
    data base       = ./ni_singlepoint.db
    status          = startup
    nproc           =        5
    time left       =     -1s



           Memory information
           ------------------

    heap     =    509724444 doubles =     3888.9 Mbytes
    stack    =    509724445 doubles =     3888.9 Mbytes
    global   =    291271111 doubles =     2222.2 Mbytes (distinct from heap & stack)
    total    =   1310720000 doubles =    10000.0 Mbytes
    verify   = yes
    hardfail = no 


           Directory information
           ---------------------

  0 permanent = .
  0 scratch   = .




                                NWChem Input Module
                                -------------------


                          Ni complex single-point energy
                          ------------------------------

 Scaling coordinates for geometry "geometry" by  1.889725989
 (inverse scale =  0.529177249)

 C1  symmetry detected

          ------
          auto-z
          ------
  no constraints, skipping    0.0000000000000000     
  no constraints, skipping    0.0000000000000000     


                             Geometry "geometry" -> ""
                             -------------------------

 Output coordinates in angstroms (scale by  1.889725989 to convert to a.u.)

  No.       Tag          Charge          X              Y              Z
 ---- ---------------- ---------- -------------- -------------- --------------
    1 C                    6.0000     1.40804096     0.84203138    -1.13974093
    2 O                    8.0000     1.30998322     1.61032227    -2.06671658
    3 Ni                  28.0000     0.09171859    -0.40214767    -0.83984556
    4 C                    6.0000    -1.09570252     0.51119465     0.32414624
    5 N                    7.0000    -1.97573491    -0.24732615     0.99888313
    6 N                    7.0000    -1.41896029     1.78616487     0.54523627
    7 C                    6.0000    -2.97400802     0.51519893     1.74934049
    8 C                    6.0000    -1.91994238    -1.67489956     1.02949986
    9 C                    6.0000    -2.64024091     1.95314101     1.34205282
   10 C                    6.0000    -0.72446859     2.92852098     0.03701054
   11 H                    1.0000    -3.98154067     0.21482648     1.45743651
   12 H                    1.0000    -2.86347952     0.34459610     2.82224278
   13 C                    6.0000    -2.50825432    -2.39840481    -0.01431733
   14 C                    6.0000    -1.28524963    -2.30314508     2.10877382
   15 H                    1.0000    -3.42240186     2.40833523     0.73064330
   16 H                    1.0000    -2.45298399     2.60440124     2.19556913
   17 C                    6.0000     0.18694330     3.57443558     0.87776041
   18 C                    6.0000    -0.99471833     3.37107325    -1.25990382
   19 C                    6.0000    -2.42368217    -3.78665768     0.03106386
   20 C                    6.0000    -3.26377480    -1.71822169    -1.14049816
   21 C                    6.0000    -1.24954134    -3.69182898     2.12391682
   22 C                    6.0000    -0.64283091    -1.51229360     3.23202605
   23 C                    6.0000     0.86296569     4.67903757     0.37267514
   24 C                    6.0000     0.40783932     3.13810370     2.31496454
   25 C                    6.0000    -0.30052880     4.48282587    -1.71964314
   26 C                    6.0000    -2.02104666     2.68858271    -2.14335603
   27 C                    6.0000    -1.80415317    -4.42749383     1.08898194
   28 H                    1.0000    -2.84855957    -4.37315139    -0.77348326
   29 C                    6.0000    -4.76971300    -1.94078336    -0.96746054
   30 C                    6.0000    -2.79457136    -2.18118300    -2.51992839
   31 H                    1.0000    -3.07390930    -0.64473326    -1.07311233
   32 H                    1.0000    -0.75950467    -4.20550006     2.94194334
   33 C                    6.0000     0.80928892    -1.93319895     3.46488620
   34 C                    6.0000    -1.45344188    -1.64622860     4.52425838
   35 H                    1.0000    -0.63124501    -0.46003116     2.93847517
   36 C                    6.0000     0.62512938     5.12610979    -0.91595443
   37 H                    1.0000     1.58371212     5.19538089     0.99480552
   38 C                    6.0000    -0.18738235     4.16965159     3.27973189
   39 C                    6.0000     1.88163514     2.89697244     2.63959693
   40 H                    1.0000    -0.11482233     2.18973068     2.46317450
   41 H                    1.0000    -0.47215311     4.84024505    -2.72685601
   42 C                    6.0000    -1.49975787     2.43030830    -3.55718313
   43 C                    6.0000    -3.31368105     3.50997650    -2.18965203
   44 H                    1.0000    -2.24929724     1.71648601    -1.70074315
   45 H                    1.0000    -1.74199554    -5.50803227     1.10230366
   46 H                    1.0000    -5.11952653    -1.58989767     0.00575223
   47 H                    1.0000    -5.01171649    -3.00315678    -1.04156009
   48 H                    1.0000    -5.32664793    -1.41305836    -1.74369877
   49 H                    1.0000    -1.71551091    -2.05911999    -2.62810204
   50 H                    1.0000    -3.29407456    -1.60000867    -3.29749968
   51 H                    1.0000    -3.03651933    -3.23231576    -2.68960304
   52 H                    1.0000     1.38375368    -1.90610401     2.53918934
   53 H                    1.0000     0.86868526    -2.94638596     3.86706509
   54 H                    1.0000     1.28495470    -1.26344651     4.18366694
   55 H                    1.0000    -2.49216341    -1.34083983     4.38562947
   56 H                    1.0000    -1.01754193    -1.03546668     5.31698550
   57 H                    1.0000    -1.46044588    -2.68396090     4.86440957
   58 H                    1.0000     1.16566445     5.98335141    -1.29695810
   59 H                    1.0000    -1.24173764     4.36262145     3.07234565
   60 H                    1.0000     0.34081588     5.12146123     3.19291348
   61 H                    1.0000    -0.09526071     3.82792294     4.31259873
   62 H                    1.0000     2.31922678     2.15268262     1.97676697
   63 H                    1.0000     1.98438805     2.54480243     3.66825252
   64 H                    1.0000     2.46305464     3.81637816     2.54688853
   65 H                    1.0000    -0.53791031     1.92159142    -3.52411706
   66 H                    1.0000    -1.37697874     3.36328657    -4.11157380
   67 H                    1.0000    -2.21377823     1.81586169    -4.10959862
   68 H                    1.0000    -3.72355961     3.68478771    -1.19291317
   69 H                    1.0000    -4.07107130     3.00027738    -2.78860526
   70 H                    1.0000    -3.12637110     4.48621317    -2.64248098
   71 N                    7.0000     0.80882188    -1.58912485    -2.04589224
   72 C                    6.0000     4.94289088     0.85601634     1.26930755
   73 C                    6.0000     4.74218066     1.84732321     0.31440881
   74 H                    1.0000     4.17269882    -0.93926981     2.16125866
   75 C                    6.0000     4.00900898    -0.15881155     1.42867526
   76 C                    6.0000     3.60141477     1.83088367    -0.47074735
   77 C                    6.0000     2.65523491     0.82382753    -0.30042258
   78 C                    6.0000     2.86671141    -0.17310833     0.64127210
   79 H                    1.0000     3.41758602     2.58920565    -1.22128475
   80 H                    1.0000     2.13630124    -0.96724684     0.73812610
   81 H                    1.0000     5.83359272     0.87263341     1.88491041
   82 H                    1.0000     5.47899047     2.63019546     0.18480230
   83 C                    6.0000     1.57828816    -2.66364079    -1.64045187
   84 C                    6.0000     2.61681935    -3.21800707    -2.40685345
   85 C                    6.0000     1.30313447    -3.27583979    -0.40249029
   86 C                    6.0000     3.32903422    -4.32004036    -1.95143417
   87 H                    1.0000     2.87937354    -2.78475054    -3.36123703
   88 C                    6.0000     2.01652308    -4.37084181     0.04118075
   89 H                    1.0000     0.48327962    -2.88725802     0.19259975
   90 C                    6.0000     3.04165071    -4.91086158    -0.73155838
   91 H                    1.0000     4.12591714    -4.71913083    -2.56804375
   92 H                    1.0000     1.75837410    -4.82186637     0.99325969
   93 H                    1.0000     3.59517627    -5.77638369    -0.39219175
   94 C                    6.0000     1.00178879    -1.15380264    -3.41665231
   95 H                    1.0000     2.01158713    -0.76956013    -3.61351304
   96 H                    1.0000     0.81403409    -1.97552296    -4.11843285
   97 H                    1.0000     0.30566950    -0.34704795    -3.64028056

      Atomic Mass 
      ----------- 

      C                 12.000000
      O                 15.994910
      Ni                57.935300
      N                 14.003070
      H                  1.007825


 Effective nuclear repulsion energy (a.u.)    7261.0221503363

            Nuclear Dipole moment (a.u.) 
            ----------------------------
        X                 Y               Z
 ---------------- ---------------- ----------------
     0.0000000000    -0.0000000000     0.0000000000



                                Z-matrix (autoz)
                                -------- 

 Units are Angstrom for bonds and degrees for angles

      Type          Name      I     J     K     L     M      Value
      ----------- --------  ----- ----- ----- ----- ----- ----------
    1 Stretch                  1     2                       1.20796
    2 Stretch                  1     3                       1.83593
    3 Stretch                  1    77                       1.50342
    4 Stretch                  3     4                       1.89711
    5 Stretch                  3    71                       1.83785
    6 Stretch                  4     5                       1.34353
    7 Stretch                  4     6                       1.33376
    8 Stretch                  5     7                       1.46328
    9 Stretch                  5     8                       1.42899
   10 Stretch                  6     9                       1.46776
   11 Stretch                  6    10                       1.43024
   12 Stretch                  7     9                       1.53133
   13 Stretch                  7    11                       1.09112
   14 Stretch                  7    12                       1.09199
   15 Stretch                  8    13                       1.39969
   16 Stretch                  8    14                       1.40084
   17 Stretch                  9    15                       1.09215
   18 Stretch                  9    16                       1.08981
   19 Stretch                 10    17                       1.39812
   20 Stretch                 10    18                       1.39674
   21 Stretch                 13    19                       1.39157
   22 Stretch                 13    20                       1.51715
   23 Stretch                 14    21                       1.38923
   24 Stretch                 14    22                       1.51652
   25 Stretch                 17    23                       1.39006
   26 Stretch                 17    24                       1.51814
   27 Stretch                 18    25                       1.38898
   28 Stretch                 18    26                       1.51645
   29 Stretch                 19    27                       1.38336
   30 Stretch                 19    28                       1.08249
   31 Stretch                 20    29                       1.53210
   32 Stretch                 20    30                       1.52883
   33 Stretch                 20    31                       1.09223
   34 Stretch                 21    27                       1.38560
   35 Stretch                 21    32                       1.08313
   36 Stretch                 22    33                       1.52972
   37 Stretch                 22    34                       1.53130
   38 Stretch                 22    35                       1.09250
   39 Stretch                 23    36                       1.38456
   40 Stretch                 23    37                       1.08311
   41 Stretch                 24    38                       1.53270
   42 Stretch                 24    39                       1.52827
   43 Stretch                 24    40                       1.09296
   44 Stretch                 25    36                       1.38440
   45 Stretch                 25    41                       1.08244
   46 Stretch                 26    42                       1.52884
   47 Stretch                 26    43                       1.53223
   48 Stretch                 26    44                       1.09223
   49 Stretch                 27    45                       1.08241
   50 Stretch                 29    46                       1.09208
   51 Stretch                 29    47                       1.09211
   52 Stretch                 29    48                       1.09143
   53 Stretch                 30    49                       1.09132
   54 Stretch                 30    50                       1.09173
   55 Stretch                 30    51                       1.09188
   56 Stretch                 33    52                       1.08980
   57 Stretch                 33    53                       1.09171
   58 Stretch                 33    54                       1.09155
   59 Stretch                 34    55                       1.09152
   60 Stretch                 34    56                       1.09154
   61 Stretch                 34    57                       1.09208
   62 Stretch                 36    58                       1.08268
   63 Stretch                 38    59                       1.09175
   64 Stretch                 38    60                       1.09200
   65 Stretch                 38    61                       1.09182
   66 Stretch                 39    62                       1.08848
   67 Stretch                 39    63                       1.09211
   68 Stretch                 39    64                       1.09176
   69 Stretch                 42    65                       1.08859
   70 Stretch                 42    66                       1.09219
   71 Stretch                 42    67                       1.09203
   72 Stretch                 43    68                       1.09181
   73 Stretch                 43    69                       1.09187
   74 Stretch                 43    70                       1.09233
   75 Stretch                 71    83                       1.38241
   76 Stretch                 71    94                       1.45111
   77 Stretch                 72    73                       1.39097
   78 Stretch                 72    75                       1.38831
   79 Stretch                 72    81                       1.08286
   80 Stretch                 73    76                       1.38495
   81 Stretch                 73    82                       1.08286
   82 Stretch                 74    75                       1.08286
   83 Stretch                 75    78                       1.38746
   84 Stretch                 76    77                       1.39227
   85 Stretch                 76    79                       1.08266
   86 Stretch                 77    78                       1.38759
   87 Stretch                 78    80                       1.08330
   88 Stretch                 83    84                       1.40472
   89 Stretch                 83    85                       1.40821
   90 Stretch                 84    86                       1.38893
   91 Stretch                 84    87                       1.08051
   92 Stretch                 85    88                       1.38014
   93 Stretch                 85    89                       1.08503
   94 Stretch                 86    90                       1.38555
   95 Stretch                 86    91                       1.08374
   96 Stretch                 88    90                       1.39271
   97 Stretch                 88    92                       1.08467
   98 Stretch                 90    93                       1.08198
   99 Stretch                 94    95                       1.09822
  100 Stretch                 94    96                       1.09680
  101 Stretch                 94    97                       1.08878
  102 Bend                     1     3     4               102.86916
  103 Bend                     1     3    71                92.90810
  104 Bend                     1    77    76               119.12490
  105 Bend                     1    77    78               120.93105
  106 Bend                     2     1     3               119.87920
  107 Bend                     2     1    77               120.22877
  108 Bend                     3     1    77               119.69526
  109 Bend                     3     4     5               116.50713
  110 Bend                     3     4     6               135.53024
  111 Bend                     3    71    83               121.78458
  112 Bend                     3    71    94               118.55653
  113 Bend                     4     3    71               163.29376
  114 Bend                     4     5     7               114.21886
  115 Bend                     4     5     8               123.31200
  116 Bend                     4     6     9               113.60333
  117 Bend                     4     6    10               125.93859
  118 Bend                     5     4     6               107.31855
  119 Bend                     5     7     9               101.78429
  120 Bend                     5     7    11               110.44416
  121 Bend                     5     7    12               110.69729
  122 Bend                     5     8    13               118.94720
  123 Bend                     5     8    14               118.83107
  124 Bend                     6     9     7               102.64575
  125 Bend                     6     9    15               109.84025
  126 Bend                     6     9    16               110.49848
  127 Bend                     6    10    17               118.15471
  128 Bend                     6    10    18               119.27916
  129 Bend                     7     5     8               122.42794
  130 Bend                     7     9    15               112.59223
  131 Bend                     7     9    16               112.97284
  132 Bend                     8    13    19               117.76260
  133 Bend                     8    13    20               122.08244
  134 Bend                     8    14    21               117.92699
  135 Bend                     8    14    22               121.91800
  136 Bend                     9     6    10               120.40294
  137 Bend                     9     7    11               112.86783
  138 Bend                     9     7    12               112.70360
  139 Bend                    10    17    23               117.75187
  140 Bend                    10    17    24               122.09717
  141 Bend                    10    18    25               117.66123
  142 Bend                    10    18    26               121.95772
  143 Bend                    11     7    12               108.25848
  144 Bend                    13     8    14               122.22039
  145 Bend                    13    19    27               120.95075
  146 Bend                    13    19    28               119.49954
  147 Bend                    13    20    29               109.90857
  148 Bend                    13    20    30               112.40585
  149 Bend                    13    20    31               107.95521
  150 Bend                    14    21    27               120.81708
  151 Bend                    14    21    32               119.59892
  152 Bend                    14    22    33               111.80099
  153 Bend                    14    22    34               110.80470
  154 Bend                    14    22    35               107.92414
  155 Bend                    15     9    16               108.20549
  156 Bend                    17    10    18               122.55558
  157 Bend                    17    23    36               120.74576
  158 Bend                    17    23    37               119.58652
  159 Bend                    17    24    38               110.24027
  160 Bend                    17    24    39               112.75312
  161 Bend                    17    24    40               107.94995
  162 Bend                    18    25    36               120.92701
  163 Bend                    18    25    41               119.54053
  164 Bend                    18    26    42               112.58256
  165 Bend                    18    26    43               110.32232
  166 Bend                    18    26    44               107.81269
  167 Bend                    19    13    20               120.11482
  168 Bend                    19    27    21               120.29880
  169 Bend                    19    27    45               119.83983
  170 Bend                    20    29    46               111.64314
  171 Bend                    20    29    47               110.57652
  172 Bend                    20    29    48               110.54872
  173 Bend                    20    30    49               111.04020
  174 Bend                    20    30    50               109.93859
  175 Bend                    20    30    51               111.32910
  176 Bend                    21    14    22               120.15390
  177 Bend                    21    27    45               119.85728
  178 Bend                    22    33    52               111.36123
  179 Bend                    22    33    53               111.28995
  180 Bend                    22    33    54               110.18657
  181 Bend                    22    34    55               111.84548
  182 Bend                    22    34    56               110.64193
  183 Bend                    22    34    57               110.44756
  184 Bend                    23    17    24               120.10678
  185 Bend                    23    36    25               120.33964
  186 Bend                    23    36    58               119.82988
  187 Bend                    24    38    59               111.98959
  188 Bend                    24    38    60               110.41002
  189 Bend                    24    38    61               110.61282
  190 Bend                    24    39    62               111.48308
  191 Bend                    24    39    63               109.97970
  192 Bend                    24    39    64               111.26358
  193 Bend                    25    18    26               120.37483
  194 Bend                    25    36    58               119.83048
  195 Bend                    26    42    65               110.61742
  196 Bend                    26    42    66               111.31112
  197 Bend                    26    42    67               109.87179
  198 Bend                    26    43    68               112.02163
  199 Bend                    26    43    69               110.58040
  200 Bend                    26    43    70               110.30184
  201 Bend                    27    19    28               119.54971
  202 Bend                    27    21    32               119.56475
  203 Bend                    29    20    30               111.07435
  204 Bend                    29    20    31               107.85866
  205 Bend                    30    20    31               107.45410
  206 Bend                    33    22    34               110.48623
  207 Bend                    33    22    35               107.20867
  208 Bend                    34    22    35               108.45761
  209 Bend                    36    23    37               119.66772
  210 Bend                    36    25    41               119.52259
  211 Bend                    38    24    39               110.30331
  212 Bend                    38    24    40               108.23568
  213 Bend                    39    24    40               107.18457
  214 Bend                    42    26    43               110.50396
  215 Bend                    42    26    44               107.19662
  216 Bend                    43    26    44               108.24363
  217 Bend                    46    29    47               107.58007
  218 Bend                    46    29    48               108.36052
  219 Bend                    47    29    48               108.00039
  220 Bend                    49    30    50               108.79924
  221 Bend                    49    30    51               108.14187
  222 Bend                    50    30    51               107.48227
  223 Bend                    52    33    53               107.89760
  224 Bend                    52    33    54               108.32328
  225 Bend                    53    33    54               107.64716
  226 Bend                    55    34    56               108.40391
  227 Bend                    55    34    57               107.41639
  228 Bend                    56    34    57               107.94191
  229 Bend                    59    38    60               107.33550
  230 Bend                    59    38    61               108.45181
  231 Bend                    60    38    61               107.89092
  232 Bend                    62    39    63               108.37541
  233 Bend                    62    39    64               108.06105
  234 Bend                    63    39    64               107.54376
  235 Bend                    65    42    66               108.37807
  236 Bend                    65    42    67               109.27738
  237 Bend                    66    42    67               107.29992
  238 Bend                    68    43    69               108.36828
  239 Bend                    68    43    70               107.44178
  240 Bend                    69    43    70               107.98347
  241 Bend                    71    83    84               123.93479
  242 Bend                    71    83    85               119.14247
  243 Bend                    71    94    95               113.36336
  244 Bend                    71    94    96               110.90971
  245 Bend                    71    94    97               109.34677
  246 Bend                    72    73    76               119.97243
  247 Bend                    72    73    82               119.94868
  248 Bend                    72    75    74               120.18676
  249 Bend                    72    75    78               119.74883
  250 Bend                    73    72    75               120.17812
  251 Bend                    73    72    81               119.86928
  252 Bend                    73    76    77               119.93408
  253 Bend                    73    76    79               121.63806
  254 Bend                    74    75    78               120.06381
  255 Bend                    75    72    81               119.95120
  256 Bend                    75    78    77               120.21324
  257 Bend                    75    78    80               120.79190
  258 Bend                    76    73    82               120.07881
  259 Bend                    76    77    78               119.94247
  260 Bend                    77    76    79               118.42749
  261 Bend                    77    78    80               118.98679
  262 Bend                    83    71    94               115.86208
  263 Bend                    83    84    86               120.88639
  264 Bend                    83    84    87               120.21924
  265 Bend                    83    85    88               121.77094
  266 Bend                    83    85    89               118.30059
  267 Bend                    84    83    85               116.90555
  268 Bend                    84    86    90               121.37661
  269 Bend                    84    86    91               118.86030
  270 Bend                    85    88    90               120.64670
  271 Bend                    85    88    92               119.27865
  272 Bend                    86    84    87               118.89243
  273 Bend                    86    90    88               118.41343
  274 Bend                    86    90    93               120.74009
  275 Bend                    88    85    89               119.89403
  276 Bend                    88    90    93               120.84432
  277 Bend                    90    86    91               119.76299
  278 Bend                    90    88    92               120.06419
  279 Bend                    95    94    96               107.74816
  280 Bend                    95    94    97               106.96651
  281 Bend                    96    94    97               108.31651
  282 Torsion                  1     3     4     5        -163.13161
  283 Torsion                  1     3     4     6          27.47578
  284 Torsion                  1     3    71    83         100.09853
  285 Torsion                  1     3    71    94         -57.04411
  286 Torsion                  1    77    76    73         178.54986
  287 Torsion                  1    77    76    79          -1.23362
  288 Torsion                  1    77    78    75        -178.55710
  289 Torsion                  1    77    78    80           2.46874
  290 Torsion                  2     1     3     4         -90.19442
  291 Torsion                  2     1     3    71          84.27350
  292 Torsion                  2     1    77    76           9.78443
  293 Torsion                  2     1    77    78        -170.67366
  294 Torsion                  3     1    77    76        -175.31860
  295 Torsion                  3     1    77    78           4.22331
  296 Torsion                  3     4     5     7        -172.68357
  297 Torsion                  3     4     5     8           9.60308
  298 Torsion                  3     4     6     9         166.02414
  299 Torsion                  3     4     6    10         -11.26566
  300 Torsion                  3    71    83    84        -149.44760
  301 Torsion                  3    71    83    85          32.10945
  302 Torsion                  3    71    94    95          94.32916
  303 Torsion                  3    71    94    96        -144.30434
  304 Torsion                  3    71    94    97         -24.91770
  305 Torsion                  4     3     1    77          94.89058
  306 Torsion                  4     3    71    83         -98.98418
  307 Torsion                  4     3    71    94         103.87318
  308 Torsion                  4     5     7     9           4.29088
  309 Torsion                  4     5     7    11         124.38542
  310 Torsion                  4     5     7    12        -115.72878
  311 Torsion                  4     5     8    13         -84.25564
  312 Torsion                  4     5     8    14          96.15631
  313 Torsion                  4     6     9     7           6.49785
  314 Torsion                  4     6     9    15        -113.47042
  315 Torsion                  4     6     9    16         127.22279
  316 Torsion                  4     6    10    17         -98.56962
  317 Torsion                  4     6    10    18          82.58147
  318 Torsion                  5     4     3    71          36.43634
  319 Torsion                  5     4     6     9          -4.03973
  320 Torsion                  5     4     6    10         178.67047
  321 Torsion                  5     7     9     6          -5.92957
  322 Torsion                  5     7     9    15         112.11159
  323 Torsion                  5     7     9    16        -124.93651
  324 Torsion                  5     8    13    19         179.14638
  325 Torsion                  5     8    13    20          -3.15695
  326 Torsion                  5     8    14    21         179.58757
  327 Torsion                  5     8    14    22          -0.79509
  328 Torsion                  6     4     3    71        -132.95627
  329 Torsion                  6     4     5     7          -0.44661
  330 Torsion                  6     4     5     8        -178.15997
  331 Torsion                  6     9     7    11        -124.30454
  332 Torsion                  6     9     7    12         112.66773
  333 Torsion                  6    10    17    23         179.63359
  334 Torsion                  6    10    17    24          -2.78319
  335 Torsion                  6    10    18    25        -179.95945
  336 Torsion                  6    10    18    26           0.94520
  337 Torsion                  7     5     8    13          98.21511
  338 Torsion                  7     5     8    14         -81.37293
  339 Torsion                  7     9     6    10        -176.04619
  340 Torsion                  8     5     7     9        -177.97307
  341 Torsion                  8     5     7    11         -57.87853
  342 Torsion                  8     5     7    12          62.00727
  343 Torsion                  8    13    19    27           1.40492
  344 Torsion                  8    13    19    28        -178.56822
  345 Torsion                  8    13    20    29        -106.26598
  346 Torsion                  8    13    20    30         129.47190
  347 Torsion                  8    13    20    31          11.13543
  348 Torsion                  8    14    21    27           1.16837
  349 Torsion                  8    14    21    32         179.56537
  350 Torsion                  8    14    22    33        -127.01219
  351 Torsion                  8    14    22    34         109.26238
  352 Torsion                  8    14    22    35          -9.34881
  353 Torsion                  9     6    10    17          84.30994
  354 Torsion                  9     6    10    18         -94.53898
  355 Torsion                 10     6     9    15          63.98554
  356 Torsion                 10     6     9    16         -55.32125
  357 Torsion                 10    17    23    36           0.66447
  358 Torsion                 10    17    23    37        -179.34030
  359 Torsion                 10    17    24    38        -108.51978
  360 Torsion                 10    17    24    39         127.72274
  361 Torsion                 10    17    24    40           9.51686
  362 Torsion                 10    18    25    36          -0.03159
  363 Torsion                 10    18    25    41         178.82021
  364 Torsion                 10    18    26    42        -133.16567
  365 Torsion                 10    18    26    43         102.87729
  366 Torsion                 10    18    26    44         -15.13404
  367 Torsion                 11     7     9    15          -6.26338
  368 Torsion                 11     7     9    16         116.68853
  369 Torsion                 12     7     9    15        -129.29111
  370 Torsion                 12     7     9    16          -6.33921
  371 Torsion                 13     8    14    21           0.01368
  372 Torsion                 13     8    14    22         179.63102
  373 Torsion                 13    19    27    21          -0.27629
  374 Torsion                 13    19    27    45        -179.53986
  375 Torsion                 13    20    29    46          56.40798
  376 Torsion                 13    20    29    47         -63.33117
  377 Torsion                 13    20    29    48         177.11551
  378 Torsion                 13    20    30    49         -54.13650
  379 Torsion                 13    20    30    50        -174.58943
  380 Torsion                 13    20    30    51          66.41717
  381 Torsion                 14     8    13    19          -1.28021
  382 Torsion                 14     8    13    20         176.41646
  383 Torsion                 14    21    27    19          -1.05654
  384 Torsion                 14    21    27    45         178.20690
  385 Torsion                 14    22    33    52          52.35257
  386 Torsion                 14    22    33    53         -68.08277
  387 Torsion                 14    22    33    54         172.58170
  388 Torsion                 14    22    34    55         -56.13866
  389 Torsion                 14    22    34    56        -177.10229
  390 Torsion                 14    22    34    57          63.44039
  391 Torsion                 17    10    18    25           1.24463
  392 Torsion                 17    10    18    26        -177.85071
  393 Torsion                 17    23    36    25           0.48915
  394 Torsion                 17    23    36    58        -179.52645
  395 Torsion                 17    24    38    59          54.86437
  396 Torsion                 17    24    38    60         -64.68190
  397 Torsion                 17    24    38    61         175.96700
  398 Torsion                 17    24    39    62         -57.33842
  399 Torsion                 17    24    39    63        -177.57445
  400 Torsion                 17    24    39    64          63.37036
  401 Torsion                 18    10    17    23          -1.55762
  402 Torsion                 18    10    17    24         176.02560
  403 Torsion                 18    25    36    23          -0.81834
  404 Torsion                 18    25    36    58         179.19726
  405 Torsion                 18    26    42    65          51.27748
  406 Torsion                 18    26    42    66         -69.27670
  407 Torsion                 18    26    42    67         172.01112
  408 Torsion                 18    26    43    68         -56.48145
  409 Torsion                 18    26    43    69        -177.47672
  410 Torsion                 18    26    43    70          63.14695
  411 Torsion                 19    13    20    29          71.37777
  412 Torsion                 19    13    20    30         -52.88435
  413 Torsion                 19    13    20    31        -171.22082
  414 Torsion                 19    27    21    32        -179.45408
  415 Torsion                 20    13    19    27        -176.33901
  416 Torsion                 20    13    19    28           3.68786
  417 Torsion                 21    14    22    33          52.59680
  418 Torsion                 21    14    22    34         -71.12863
  419 Torsion                 21    14    22    35         170.26018
  420 Torsion                 21    27    19    28         179.69683
  421 Torsion                 22    14    21    27        -178.45599
  422 Torsion                 22    14    21    32          -0.05899
  423 Torsion                 23    17    24    38          69.00786
  424 Torsion                 23    17    24    39         -54.74962
  425 Torsion                 23    17    24    40        -172.95550
  426 Torsion                 23    36    25    41        -179.67034
  427 Torsion                 24    17    23    36        -176.96890
  428 Torsion                 24    17    23    37           3.02632
  429 Torsion                 25    18    26    42          47.76308
  430 Torsion                 25    18    26    43         -76.19397
  431 Torsion                 25    18    26    44         165.79470
  432 Torsion                 25    36    23    37        -179.50607
  433 Torsion                 26    18    25    36         179.07875
  434 Torsion                 26    18    25    41          -2.06945
  435 Torsion                 28    19    27    45           0.43326
  436 Torsion                 29    20    30    49        -177.75119
  437 Torsion                 29    20    30    50          61.79588
  438 Torsion                 29    20    30    51         -57.19752
  439 Torsion                 30    20    29    46        -178.56156
  440 Torsion                 30    20    29    47          61.69929
  441 Torsion                 30    20    29    48         -57.85402
  442 Torsion                 31    20    29    46         -61.05354
  443 Torsion                 31    20    29    47         179.20731
  444 Torsion                 31    20    29    48          59.65399
  445 Torsion                 31    20    30    49          64.49479
  446 Torsion                 31    20    30    50         -55.95813
  447 Torsion                 31    20    30    51        -174.95153
  448 Torsion                 32    21    27    45          -0.19064
  449 Torsion                 33    22    34    55         179.38490
  450 Torsion                 33    22    34    56          58.42128
  451 Torsion                 33    22    34    57         -61.03604
  452 Torsion                 34    22    33    52         176.25715
  453 Torsion                 34    22    33    53          55.82180
  454 Torsion                 34    22    33    54         -63.51373
  455 Torsion                 35    22    33    52         -65.73900
  456 Torsion                 35    22    33    53         173.82565
  457 Torsion                 35    22    33    54          54.49012
  458 Torsion                 35    22    34    55          62.14898
  459 Torsion                 35    22    34    56         -58.81465
  460 Torsion                 35    22    34    57        -178.27197
  461 Torsion                 37    23    36    58           0.47833
  462 Torsion                 38    24    39    62         178.93897
  463 Torsion                 38    24    39    63          58.70294
  464 Torsion                 38    24    39    64         -60.35225
  465 Torsion                 39    24    38    59        -179.96988
  466 Torsion                 39    24    38    60          60.48386
  467 Torsion                 39    24    38    61         -58.86725
  468 Torsion                 40    24    38    59         -62.99633
  469 Torsion                 40    24    38    60         177.45741
  470 Torsion                 40    24    38    61          58.10630
  471 Torsion                 40    24    39    62          61.31505
  472 Torsion                 40    24    39    63         -58.92098
  473 Torsion                 40    24    39    64        -177.97617
  474 Torsion                 41    25    36    58           0.34526
  475 Torsion                 42    26    43    68         178.36981
  476 Torsion                 42    26    43    69          57.37454
  477 Torsion                 42    26    43    70         -62.00179
  478 Torsion                 43    26    42    65         175.13395
  479 Torsion                 43    26    42    66          54.57976
  480 Torsion                 43    26    42    67         -64.13241
  481 Torsion                 44    26    42    65         -67.11633
  482 Torsion                 44    26    42    66         172.32949
  483 Torsion                 44    26    42    67          53.61732
  484 Torsion                 44    26    43    68          61.26475
  485 Torsion                 44    26    43    69         -59.73052
  486 Torsion                 44    26    43    70        -179.10685
  487 Torsion                 71     3     1    77         -90.64150
  488 Torsion                 71    83    84    86        -178.40732
  489 Torsion                 71    83    84    87           2.10488
  490 Torsion                 71    83    85    88         178.47299
  491 Torsion                 71    83    85    89           0.61066
  492 Torsion                 72    73    76    77           0.17547
  493 Torsion                 72    73    76    79         179.95182
  494 Torsion                 72    75    78    77          -0.14204
  495 Torsion                 72    75    78    80         178.81337
  496 Torsion                 73    72    75    74         179.03572
  497 Torsion                 73    72    75    78          -0.68242
  498 Torsion                 73    76    77    78          -0.99667
  499 Torsion                 74    75    72    81          -0.53321
  500 Torsion                 74    75    78    77        -179.86053
  501 Torsion                 74    75    78    80          -0.90512
  502 Torsion                 75    72    73    76           0.66563
  503 Torsion                 75    72    73    82        -179.23858
  504 Torsion                 75    78    77    76           0.98110
  505 Torsion                 76    73    72    81        -179.76509
  506 Torsion                 76    77    78    80        -177.99306
  507 Torsion                 77    76    73    82        -179.92046
  508 Torsion                 78    75    72    81         179.74865
  509 Torsion                 78    77    76    79         179.21984
  510 Torsion                 79    76    73    82          -0.14410
  511 Torsion                 81    72    73    82           0.33071
  512 Torsion                 83    71    94    95         -64.14408
  513 Torsion                 83    71    94    96          57.22242
  514 Torsion                 83    71    94    97         176.60906
  515 Torsion                 83    84    86    90           0.07845
  516 Torsion                 83    84    86    91        -179.80582
  517 Torsion                 83    85    88    90          -0.05653
  518 Torsion                 83    85    88    92        -178.88056
  519 Torsion                 84    83    71    94           8.27092
  520 Torsion                 84    83    85    88          -0.07838
  521 Torsion                 84    83    85    89        -177.94071
  522 Torsion                 84    86    90    88          -0.21227
  523 Torsion                 84    86    90    93         179.25810
  524 Torsion                 85    83    71    94        -170.17203
  525 Torsion                 85    83    84    86           0.06767
  526 Torsion                 85    83    84    87        -179.42013
  527 Torsion                 85    88    90    86           0.20067
  528 Torsion                 85    88    90    93        -179.26913
  529 Torsion                 86    90    88    92         179.01548
  530 Torsion                 87    84    86    90         179.57294
  531 Torsion                 87    84    86    91          -0.31134
  532 Torsion                 88    90    86    91         179.67097
  533 Torsion                 89    85    88    90         177.77244
  534 Torsion                 89    85    88    92          -1.05160
  535 Torsion                 91    86    90    93          -0.85865
  536 Torsion                 92    88    90    93          -0.45432


            XYZ format geometry
            -------------------
    97
 geometry
 C                     1.40804096     0.84203138    -1.13974093
 O                     1.30998322     1.61032227    -2.06671658
 Ni                    0.09171859    -0.40214767    -0.83984556
 C                    -1.09570252     0.51119465     0.32414624
 N                    -1.97573491    -0.24732615     0.99888313
 N                    -1.41896029     1.78616487     0.54523627
 C                    -2.97400802     0.51519893     1.74934049
 C                    -1.91994238    -1.67489956     1.02949986
 C                    -2.64024091     1.95314101     1.34205282
 C                    -0.72446859     2.92852098     0.03701054
 H                    -3.98154067     0.21482648     1.45743651
 H                    -2.86347952     0.34459610     2.82224278
 C                    -2.50825432    -2.39840481    -0.01431733
 C                    -1.28524963    -2.30314508     2.10877382
 H                    -3.42240186     2.40833523     0.73064330
 H                    -2.45298399     2.60440124     2.19556913
 C                     0.18694330     3.57443558     0.87776041
 C                    -0.99471833     3.37107325    -1.25990382
 C                    -2.42368217    -3.78665768     0.03106386
 C                    -3.26377480    -1.71822169    -1.14049816
 C                    -1.24954134    -3.69182898     2.12391682
 C                    -0.64283091    -1.51229360     3.23202605
 C                     0.86296569     4.67903757     0.37267514
 C                     0.40783932     3.13810370     2.31496454
 C                    -0.30052880     4.48282587    -1.71964314
 C                    -2.02104666     2.68858271    -2.14335603
 C                    -1.80415317    -4.42749383     1.08898194
 H                    -2.84855957    -4.37315139    -0.77348326
 C                    -4.76971300    -1.94078336    -0.96746054
 C                    -2.79457136    -2.18118300    -2.51992839
 H                    -3.07390930    -0.64473326    -1.07311233
 H                    -0.75950467    -4.20550006     2.94194334
 C                     0.80928892    -1.93319895     3.46488620
 C                    -1.45344188    -1.64622860     4.52425838
 H                    -0.63124501    -0.46003116     2.93847517
 C                     0.62512938     5.12610979    -0.91595443
 H                     1.58371212     5.19538089     0.99480552
 C                    -0.18738235     4.16965159     3.27973189
 C                     1.88163514     2.89697244     2.63959693
 H                    -0.11482233     2.18973068     2.46317450
 H                    -0.47215311     4.84024505    -2.72685601
 C                    -1.49975787     2.43030830    -3.55718313
 C                    -3.31368105     3.50997650    -2.18965203
 H                    -2.24929724     1.71648601    -1.70074315
 H                    -1.74199554    -5.50803227     1.10230366
 H                    -5.11952653    -1.58989767     0.00575223
 H                    -5.01171649    -3.00315678    -1.04156009
 H                    -5.32664793    -1.41305836    -1.74369877
 H                    -1.71551091    -2.05911999    -2.62810204
 H                    -3.29407456    -1.60000867    -3.29749968
 H                    -3.03651933    -3.23231576    -2.68960304
 H                     1.38375368    -1.90610401     2.53918934
 H                     0.86868526    -2.94638596     3.86706509
 H                     1.28495470    -1.26344651     4.18366694
 H                    -2.49216341    -1.34083983     4.38562947
 H                    -1.01754193    -1.03546668     5.31698550
 H                    -1.46044588    -2.68396090     4.86440957
 H                     1.16566445     5.98335141    -1.29695810
 H                    -1.24173764     4.36262145     3.07234565
 H                     0.34081588     5.12146123     3.19291348
 H                    -0.09526071     3.82792294     4.31259873
 H                     2.31922678     2.15268262     1.97676697
 H                     1.98438805     2.54480243     3.66825252
 H                     2.46305464     3.81637816     2.54688853
 H                    -0.53791031     1.92159142    -3.52411706
 H                    -1.37697874     3.36328657    -4.11157380
 H                    -2.21377823     1.81586169    -4.10959862
 H                    -3.72355961     3.68478771    -1.19291317
 H                    -4.07107130     3.00027738    -2.78860526
 H                    -3.12637110     4.48621317    -2.64248098
 N                     0.80882188    -1.58912485    -2.04589224
 C                     4.94289088     0.85601634     1.26930755
 C                     4.74218066     1.84732321     0.31440881
 H                     4.17269882    -0.93926981     2.16125866
 C                     4.00900898    -0.15881155     1.42867526
 C                     3.60141477     1.83088367    -0.47074735
 C                     2.65523491     0.82382753    -0.30042258
 C                     2.86671141    -0.17310833     0.64127210
 H                     3.41758602     2.58920565    -1.22128475
 H                     2.13630124    -0.96724684     0.73812610
 H                     5.83359272     0.87263341     1.88491041
 H                     5.47899047     2.63019546     0.18480230
 C                     1.57828816    -2.66364079    -1.64045187
 C                     2.61681935    -3.21800707    -2.40685345
 C                     1.30313447    -3.27583979    -0.40249029
 C                     3.32903422    -4.32004036    -1.95143417
 H                     2.87937354    -2.78475054    -3.36123703
 C                     2.01652308    -4.37084181     0.04118075
 H                     0.48327962    -2.88725802     0.19259975
 C                     3.04165071    -4.91086158    -0.73155838
 H                     4.12591714    -4.71913083    -2.56804375
 H                     1.75837410    -4.82186637     0.99325969
 H                     3.59517627    -5.77638369    -0.39219175
 C                     1.00178879    -1.15380264    -3.41665231
 H                     2.01158713    -0.76956013    -3.61351304
 H                     0.81403409    -1.97552296    -4.11843285
 H                     0.30566950    -0.34704795    -3.64028056

 ==============================================================================
                                internuclear distances
 ------------------------------------------------------------------------------
       center one      |      center two      | atomic units |  angstroms
 ------------------------------------------------------------------------------
    2 O                |   1 C                |     2.28272  |     1.20796
    3 Ni               |   1 C                |     3.46940  |     1.83593
    4 C                |   3 Ni               |     3.58502  |     1.89711
    5 N                |   4 C                |     2.53891  |     1.34353
    6 N                |   4 C                |     2.52045  |     1.33376
    7 C                |   5 N                |     2.76519  |     1.46328
    8 C                |   5 N                |     2.70040  |     1.42899
    9 C                |   6 N                |     2.77367  |     1.46776
    9 C                |   7 C                |     2.89379  |     1.53133
   10 C                |   6 N                |     2.70276  |     1.43024
   11 H                |   7 C                |     2.06193  |     1.09112
   12 H                |   7 C                |     2.06356  |     1.09199
   13 C                |   8 C                |     2.64503  |     1.39969
   14 C                |   8 C                |     2.64721  |     1.40084
   15 H                |   9 C                |     2.06387  |     1.09215
   16 H                |   9 C                |     2.05945  |     1.08981
   17 C                |  10 C                |     2.64206  |     1.39812
   18 C                |  10 C                |     2.63945  |     1.39674
   19 C                |  13 C                |     2.62968  |     1.39157
   20 C                |  13 C                |     2.86700  |     1.51715
   21 C                |  14 C                |     2.62526  |     1.38923
   22 C                |  14 C                |     2.86581  |     1.51652
   23 C                |  17 C                |     2.62683  |     1.39006
   24 C                |  17 C                |     2.86886  |     1.51814
   25 C                |  18 C                |     2.62478  |     1.38898
   26 C                |  18 C                |     2.86568  |     1.51645
   27 C                |  19 C                |     2.61417  |     1.38336
   27 C                |  21 C                |     2.61840  |     1.38560
   28 H                |  19 C                |     2.04562  |     1.08249
   29 C                |  20 C                |     2.89525  |     1.53210
   30 C                |  20 C                |     2.88906  |     1.52883
   31 H                |  20 C                |     2.06402  |     1.09223
   32 H                |  21 C                |     2.04681  |     1.08313
   33 C                |  22 C                |     2.89075  |     1.52972
   34 C                |  22 C                |     2.89375  |     1.53130
   35 H                |  22 C                |     2.06453  |     1.09250
   36 C                |  23 C                |     2.61644  |     1.38456
   36 C                |  25 C                |     2.61614  |     1.38440
   37 H                |  23 C                |     2.04679  |     1.08311
   38 C                |  24 C                |     2.89637  |     1.53270
   39 C                |  24 C                |     2.88801  |     1.52827
   40 H                |  24 C                |     2.06539  |     1.09296
   41 H                |  25 C                |     2.04552  |     1.08244
   42 C                |  26 C                |     2.88909  |     1.52884
   43 C                |  26 C                |     2.89550  |     1.53223
   44 H                |  26 C                |     2.06402  |     1.09223
   45 H                |  27 C                |     2.04545  |     1.08241
   46 H                |  29 C                |     2.06373  |     1.09208
   47 H                |  29 C                |     2.06378  |     1.09211
   48 H                |  29 C                |     2.06250  |     1.09143
   49 H                |  30 C                |     2.06229  |     1.09132
   50 H                |  30 C                |     2.06308  |     1.09173
   51 H                |  30 C                |     2.06336  |     1.09188
   52 H                |  33 C                |     2.05942  |     1.08980
   53 H                |  33 C                |     2.06303  |     1.09171
   54 H                |  33 C                |     2.06272  |     1.09155
   55 H                |  34 C                |     2.06268  |     1.09152
   56 H                |  34 C                |     2.06271  |     1.09154
   57 H                |  34 C                |     2.06373  |     1.09208
   58 H                |  36 C                |     2.04598  |     1.08268
   59 H                |  38 C                |     2.06310  |     1.09175
   60 H                |  38 C                |     2.06359  |     1.09200
   61 H                |  38 C                |     2.06325  |     1.09182
   62 H                |  39 C                |     2.05694  |     1.08848
   63 H                |  39 C                |     2.06380  |     1.09211
   64 H                |  39 C                |     2.06314  |     1.09176
   65 H                |  42 C                |     2.05714  |     1.08859
   66 H                |  42 C                |     2.06393  |     1.09219
   67 H                |  42 C                |     2.06364  |     1.09203
   68 H                |  43 C                |     2.06322  |     1.09181
   69 H                |  43 C                |     2.06333  |     1.09187
   70 H                |  43 C                |     2.06420  |     1.09233
   71 N                |   3 Ni               |     3.47304  |     1.83785
   73 C                |  72 C                |     2.62856  |     1.39097
   75 C                |  72 C                |     2.62353  |     1.38831
   75 C                |  74 H                |     2.04631  |     1.08286
   76 C                |  73 C                |     2.61718  |     1.38495
   77 C                |   1 C                |     2.84106  |     1.50342
   77 C                |  76 C                |     2.63102  |     1.39227
   78 C                |  75 C                |     2.62192  |     1.38746
   78 C                |  77 C                |     2.62216  |     1.38759
   79 H                |  76 C                |     2.04593  |     1.08266
   80 H                |  78 C                |     2.04714  |     1.08330
   81 H                |  72 C                |     2.04631  |     1.08286
   82 H                |  73 C                |     2.04630  |     1.08286
   83 C                |  71 N                |     2.61237  |     1.38241
   84 C                |  83 C                |     2.65454  |     1.40472
   85 C                |  83 C                |     2.66112  |     1.40821
   86 C                |  84 C                |     2.62470  |     1.38893
   87 H                |  84 C                |     2.04186  |     1.08051
   88 C                |  85 C                |     2.60809  |     1.38014
   89 H                |  85 C                |     2.05041  |     1.08503
   90 C                |  86 C                |     2.61831  |     1.38555
   90 C                |  88 C                |     2.63184  |     1.39271
   91 H                |  86 C                |     2.04798  |     1.08374
   92 H                |  88 C                |     2.04974  |     1.08467
   93 H                |  90 C                |     2.04465  |     1.08198
   94 C                |  71 N                |     2.74220  |     1.45111
   95 H                |  94 C                |     2.07534  |     1.09822
   96 H                |  94 C                |     2.07265  |     1.09680
   97 H                |  94 C                |     2.05750  |     1.08878
 ------------------------------------------------------------------------------
                         number of included internuclear distances:        101
 ==============================================================================



 ==============================================================================
                                 internuclear angles
 ------------------------------------------------------------------------------
        center 1       |       center 2       |       center 3       |  degrees
 ------------------------------------------------------------------------------
    2 O                |   1 C                |   3 Ni               |   119.88
    2 O                |   1 C                |  77 C                |   120.23
    3 Ni               |   1 C                |  77 C                |   119.70
    1 C                |   3 Ni               |   4 C                |   102.87
    1 C                |   3 Ni               |  71 N                |    92.91
    4 C                |   3 Ni               |  71 N                |   163.29
    3 Ni               |   4 C                |   5 N                |   116.51
    3 Ni               |   4 C                |   6 N                |   135.53
    5 N                |   4 C                |   6 N                |   107.32
    4 C                |   5 N                |   7 C                |   114.22
    4 C                |   5 N                |   8 C                |   123.31
    7 C                |   5 N                |   8 C                |   122.43
    4 C                |   6 N                |   9 C                |   113.60
    4 C                |   6 N                |  10 C                |   125.94
    9 C                |   6 N                |  10 C                |   120.40
    5 N                |   7 C                |   9 C                |   101.78
    5 N                |   7 C                |  11 H                |   110.44
    5 N                |   7 C                |  12 H                |   110.70
    9 C                |   7 C                |  11 H                |   112.87
    9 C                |   7 C                |  12 H                |   112.70
   11 H                |   7 C                |  12 H                |   108.26
    5 N                |   8 C                |  13 C                |   118.95
    5 N                |   8 C                |  14 C                |   118.83
   13 C                |   8 C                |  14 C                |   122.22
    6 N                |   9 C                |   7 C                |   102.65
    6 N                |   9 C                |  15 H                |   109.84
    6 N                |   9 C                |  16 H                |   110.50
    7 C                |   9 C                |  15 H                |   112.59
    7 C                |   9 C                |  16 H                |   112.97
   15 H                |   9 C                |  16 H                |   108.21
    6 N                |  10 C                |  17 C                |   118.15
    6 N                |  10 C                |  18 C                |   119.28
   17 C                |  10 C                |  18 C                |   122.56
    8 C                |  13 C                |  19 C                |   117.76
    8 C                |  13 C                |  20 C                |   122.08
   19 C                |  13 C                |  20 C                |   120.11
    8 C                |  14 C                |  21 C                |   117.93
    8 C                |  14 C                |  22 C                |   121.92
   21 C                |  14 C                |  22 C                |   120.15
   10 C                |  17 C                |  23 C                |   117.75
   10 C                |  17 C                |  24 C                |   122.10
   23 C                |  17 C                |  24 C                |   120.11
   10 C                |  18 C                |  25 C                |   117.66
   10 C                |  18 C                |  26 C                |   121.96
   25 C                |  18 C                |  26 C                |   120.37
   13 C                |  19 C                |  27 C                |   120.95
   13 C                |  19 C                |  28 H                |   119.50
   27 C                |  19 C                |  28 H                |   119.55
   13 C                |  20 C                |  29 C                |   109.91
   13 C                |  20 C                |  30 C                |   112.41
   13 C                |  20 C                |  31 H                |   107.96
   29 C                |  20 C                |  30 C                |   111.07
   29 C                |  20 C                |  31 H                |   107.86
   30 C                |  20 C                |  31 H                |   107.45
   14 C                |  21 C                |  27 C                |   120.82
   14 C                |  21 C                |  32 H                |   119.60
   27 C                |  21 C                |  32 H                |   119.56
   14 C                |  22 C                |  33 C                |   111.80
   14 C                |  22 C                |  34 C                |   110.80
   14 C                |  22 C                |  35 H                |   107.92
   33 C                |  22 C                |  34 C                |   110.49
   33 C                |  22 C                |  35 H                |   107.21
   34 C                |  22 C                |  35 H                |   108.46
   17 C                |  23 C                |  36 C                |   120.75
   17 C                |  23 C                |  37 H                |   119.59
   36 C                |  23 C                |  37 H                |   119.67
   17 C                |  24 C                |  38 C                |   110.24
   17 C                |  24 C                |  39 C                |   112.75
   17 C                |  24 C                |  40 H                |   107.95
   38 C                |  24 C                |  39 C                |   110.30
   38 C                |  24 C                |  40 H                |   108.24
   39 C                |  24 C                |  40 H                |   107.18
   18 C                |  25 C                |  36 C                |   120.93
   18 C                |  25 C                |  41 H                |   119.54
   36 C                |  25 C                |  41 H                |   119.52
   18 C                |  26 C                |  42 C                |   112.58
   18 C                |  26 C                |  43 C                |   110.32
   18 C                |  26 C                |  44 H                |   107.81
   42 C                |  26 C                |  43 C                |   110.50
   42 C                |  26 C                |  44 H                |   107.20
   43 C                |  26 C                |  44 H                |   108.24
   19 C                |  27 C                |  21 C                |   120.30
   19 C                |  27 C                |  45 H                |   119.84
   21 C                |  27 C                |  45 H                |   119.86
   20 C                |  29 C                |  46 H                |   111.64
   20 C                |  29 C                |  47 H                |   110.58
   20 C                |  29 C                |  48 H                |   110.55
   46 H                |  29 C                |  47 H                |   107.58
   46 H                |  29 C                |  48 H                |   108.36
   47 H                |  29 C                |  48 H                |   108.00
   20 C                |  30 C                |  49 H                |   111.04
   20 C                |  30 C                |  50 H                |   109.94
   20 C                |  30 C                |  51 H                |   111.33
   49 H                |  30 C                |  50 H                |   108.80
   49 H                |  30 C                |  51 H                |   108.14
   50 H                |  30 C                |  51 H                |   107.48
   22 C                |  33 C                |  52 H                |   111.36
   22 C                |  33 C                |  53 H                |   111.29
   22 C                |  33 C                |  54 H                |   110.19
   52 H                |  33 C                |  53 H                |   107.90
   52 H                |  33 C                |  54 H                |   108.32
   53 H                |  33 C                |  54 H                |   107.65
   22 C                |  34 C                |  55 H                |   111.85
   22 C                |  34 C                |  56 H                |   110.64
   22 C                |  34 C                |  57 H                |   110.45
   55 H                |  34 C                |  56 H                |   108.40
   55 H                |  34 C                |  57 H                |   107.42
   56 H                |  34 C                |  57 H                |   107.94
   23 C                |  36 C                |  25 C                |   120.34
   23 C                |  36 C                |  58 H                |   119.83
   25 C                |  36 C                |  58 H                |   119.83
   24 C                |  38 C                |  59 H                |   111.99
   24 C                |  38 C                |  60 H                |   110.41
   24 C                |  38 C                |  61 H                |   110.61
   59 H                |  38 C                |  60 H                |   107.34
   59 H                |  38 C                |  61 H                |   108.45
   60 H                |  38 C                |  61 H                |   107.89
   24 C                |  39 C                |  62 H                |   111.48
   24 C                |  39 C                |  63 H                |   109.98
   24 C                |  39 C                |  64 H                |   111.26
   62 H                |  39 C                |  63 H                |   108.38
   62 H                |  39 C                |  64 H                |   108.06
   63 H                |  39 C                |  64 H                |   107.54
   26 C                |  42 C                |  65 H                |   110.62
   26 C                |  42 C                |  66 H                |   111.31
   26 C                |  42 C                |  67 H                |   109.87
   65 H                |  42 C                |  66 H                |   108.38
   65 H                |  42 C                |  67 H                |   109.28
   66 H                |  42 C                |  67 H                |   107.30
   26 C                |  43 C                |  68 H                |   112.02
   26 C                |  43 C                |  69 H                |   110.58
   26 C                |  43 C                |  70 H                |   110.30
   68 H                |  43 C                |  69 H                |   108.37
   68 H                |  43 C                |  70 H                |   107.44
   69 H                |  43 C                |  70 H                |   107.98
    3 Ni               |  71 N                |  83 C                |   121.78
    3 Ni               |  71 N                |  94 C                |   118.56
   83 C                |  71 N                |  94 C                |   115.86
   73 C                |  72 C                |  75 C                |   120.18
   73 C                |  72 C                |  81 H                |   119.87
   75 C                |  72 C                |  81 H                |   119.95
   72 C                |  73 C                |  76 C                |   119.97
   72 C                |  73 C                |  82 H                |   119.95
   76 C                |  73 C                |  82 H                |   120.08
   72 C                |  75 C                |  74 H                |   120.19
   72 C                |  75 C                |  78 C                |   119.75
   74 H                |  75 C                |  78 C                |   120.06
   73 C                |  76 C                |  77 C                |   119.93
   73 C                |  76 C                |  79 H                |   121.64
   77 C                |  76 C                |  79 H                |   118.43
    1 C                |  77 C                |  76 C                |   119.12
    1 C                |  77 C                |  78 C                |   120.93
   76 C                |  77 C                |  78 C                |   119.94
   75 C                |  78 C                |  77 C                |   120.21
   75 C                |  78 C                |  80 H                |   120.79
   77 C                |  78 C                |  80 H                |   118.99
   71 N                |  83 C                |  84 C                |   123.93
   71 N                |  83 C                |  85 C                |   119.14
   84 C                |  83 C                |  85 C                |   116.91
   83 C                |  84 C                |  86 C                |   120.89
   83 C                |  84 C                |  87 H                |   120.22
   86 C                |  84 C                |  87 H                |   118.89
   83 C                |  85 C                |  88 C                |   121.77
   83 C                |  85 C                |  89 H                |   118.30
   88 C                |  85 C                |  89 H                |   119.89
   84 C                |  86 C                |  90 C                |   121.38
   84 C                |  86 C                |  91 H                |   118.86
   90 C                |  86 C                |  91 H                |   119.76
   85 C                |  88 C                |  90 C                |   120.65
   85 C                |  88 C                |  92 H                |   119.28
   90 C                |  88 C                |  92 H                |   120.06
   86 C                |  90 C                |  88 C                |   118.41
   86 C                |  90 C                |  93 H                |   120.74
   88 C                |  90 C                |  93 H                |   120.84
   71 N                |  94 C                |  95 H                |   113.36
   71 N                |  94 C                |  96 H                |   110.91
   71 N                |  94 C                |  97 H                |   109.35
   95 H                |  94 C                |  96 H                |   107.75
   95 H                |  94 C                |  97 H                |   106.97
   96 H                |  94 C                |  97 H                |   108.32
 ------------------------------------------------------------------------------
                            number of included internuclear angles:        180
 ==============================================================================



                      Basis "ao basis" -> "" (cartesian)
                      -----
  C (Carbon)
  ----------
            Exponent  Coefficients 
       -------------- ---------------------------------------------------------
  1 S  1.23840169E+03  0.005457
  1 S  1.86290050E+02  0.040638
  1 S  4.22511763E+01  0.180256
  1 S  1.16765579E+01  0.463151
  1 S  3.59305065E+00  0.440872

  2 S  4.02451474E-01  1.000000

  3 S  1.30901827E-01  1.000000

  4 P  9.46809706E+00  0.038388
  4 P  2.01035451E+00  0.211170
  4 P  5.47710047E-01  0.513282

  5 P  1.52686138E-01  1.000000

  H (Hydrogen)
  ------------
            Exponent  Coefficients 
       -------------- ---------------------------------------------------------
  1 S  1.30107010E+01  0.019682
  1 S  1.96225720E+00  0.137965
  1 S  4.44537960E-01  0.478319

  2 S  1.21949620E-01  1.000000

  O (Oxygen)
  ----------
            Exponent  Coefficients 
       -------------- ---------------------------------------------------------
  1 S  2.26617678E+03 -0.005343
  1 S  3.40870102E+02 -0.039890
  1 S  7.73631352E+01 -0.178539
  1 S  2.14796449E+01 -0.464277
  1 S  6.65894331E+00 -0.443097

  2 S  8.09759757E-01  1.000000

  3 S  2.55307722E-01  1.000000

  4 P  1.77215043E+01  0.043395
  4 P  3.86355054E+00  0.230941
  4 P  1.04809209E+00  0.513753

  5 P  2.76415444E-01  1.000000

  N (Nitrogen)
  ------------
            Exponent  Coefficients 
       -------------- ---------------------------------------------------------
  1 S  1.71284159E+03 -0.005393
  1 S  2.57648127E+02 -0.040222
  1 S  5.84582459E+01 -0.179311
[...]
  ----- ------------  ---------------      ----- ------------  ---------------
   478    -11.689030  84 C  s               202     11.235155  23 C  s         
   220     11.190466  25 C  s               157    -10.875649  18 C  s         
   507     10.774042  88 C  s               113     10.677180  10 C  s         
   148    -10.326091  17 C  s               496     10.365350  86 C  s         
   291    -10.080090  36 C  s               518     -9.827726  90 C  s         

 Vector  526  Occ=0.000000D+00  E= 1.771427D+00
              MO Center= -2.7D-01, -9.8D-01, -4.9D-02, r^2= 1.6D+01
   Bfn.  Coefficient  Atom+Function         Bfn.  Coefficient  Atom+Function  
  ----- ------------  ---------------      ----- ------------  ---------------
   166     12.299721  19 C  s               184     12.052037  21 C  s         
   100    -11.645627   8 C  py              126    -10.936656  13 C  s         
    95     10.777351   8 C  s               135    -10.800144  14 C  s         
   238    -10.762189  27 C  s               132     -7.505846  13 C  pz        
   202     -6.841744  23 C  s               220     -6.811078  25 C  s         

 Vector  527  Occ=0.000000D+00  E= 1.793730D+00
              MO Center=  7.6D-01, -8.7D-01, -1.2D+00, r^2= 1.1D+01
   Bfn.  Coefficient  Atom+Function         Bfn.  Coefficient  Atom+Function  
  ----- ------------  ---------------      ----- ------------  ---------------
   487     10.081868  85 C  s               507     -8.001561  88 C  s         
   496     -7.411506  86 C  s               518      6.853787  90 C  s         
   469     -6.291369  83 C  s               475     -5.710466  83 C  pz        
   157     -5.521793  18 C  s               202      5.421717  23 C  s         
    22     -5.202146   3 Ni s               220      5.083372  25 C  s         

 Vector  528  Occ=0.000000D+00  E= 1.799943D+00
              MO Center=  2.9D-01,  5.1D-01, -1.0D+00, r^2= 9.6D+00
   Bfn.  Coefficient  Atom+Function         Bfn.  Coefficient  Atom+Function  
  ----- ------------  ---------------      ----- ------------  ---------------
    22     18.652396   3 Ni s               113      6.388237  10 C  s         
   220      6.331679  25 C  s                23     -5.762668   3 Ni s         
   157     -5.649267  18 C  s               118      5.562966  10 C  py        
   202      5.286538  23 C  s               229     -5.110518  26 C  s         
   291     -4.876517  36 C  s               148     -4.831828  17 C  s         

 Vector  529  Occ=0.000000D+00  E= 1.916839D+00
              MO Center= -1.3D+00,  5.9D-01,  4.7D-01, r^2= 6.4D+00
   Bfn.  Coefficient  Atom+Function         Bfn.  Coefficient  Atom+Function  
  ----- ------------  ---------------      ----- ------------  ---------------
    22      7.761897   3 Ni s               100     -5.512692   8 C  py        
    73     -4.405068   5 N  py               86      4.263789   7 C  s         
   104     -4.238137   9 C  s                68      3.764234   5 N  s         
   175     -3.565082  20 C  s                81     -3.266439   6 N  px        
    23     -3.030356   3 Ni s               507     -2.850550  88 C  s         

 Vector  530  Occ=0.000000D+00  E= 1.943764D+00
              MO Center=  7.0D-01,  3.3D-01, -1.3D+00, r^2= 6.8D+00
   Bfn.  Coefficient  Atom+Function         Bfn.  Coefficient  Atom+Function  
  ----- ------------  ---------------      ----- ------------  ---------------
    22     19.115901   3 Ni s                23     -7.283521   3 Ni s         
    12     -5.507408   2 O  s               487      5.149614  85 C  s         
    54     -4.712999   3 Ni dyy              56     -4.506592   3 Ni dzz       
    51     -3.884258   3 Ni dxx             113     -3.737956  10 C  s         
   507     -3.235111  88 C  s                 8      3.063590   1 C  py        

 Vector  531  Occ=0.000000D+00  E= 2.877902D+00
              MO Center=  4.9D-02, -3.0D-01, -1.0D+00, r^2= 2.7D+00
   Bfn.  Coefficient  Atom+Function         Bfn.  Coefficient  Atom+Function  
  ----- ------------  ---------------      ----- ------------  ---------------
    22     10.810806   3 Ni s                21      5.682450   3 Ni s         
    23     -5.218799   3 Ni s                20     -3.131016   3 Ni s         
    45     -2.777980   3 Ni dxx              48     -2.780143   3 Ni dyy       
    50     -2.773587   3 Ni dzz              34      1.969057   3 Ni py        
   487      1.917872  85 C  s                56     -1.555394   3 Ni dzz       

 Vector  532  Occ=0.000000D+00  E= 3.135463D+00
              MO Center=  2.8D-01, -4.7D-01, -6.4D-01, r^2= 1.5D+00
   Bfn.  Coefficient  Atom+Function         Bfn.  Coefficient  Atom+Function  
  ----- ------------  ---------------      ----- ------------  ---------------
    22      6.527921   3 Ni s                21      1.976405   3 Ni s         
   487      1.588275  85 C  s                20     -1.398808   3 Ni s         
   462     -1.383218  80 H  s                23     -1.309330   3 Ni s         
   447      1.294393  77 C  px               33      1.276994   3 Ni px        
    51     -1.247631   3 Ni dxx              50     -1.204879   3 Ni dzz       

 Vector  533  Occ=0.000000D+00  E= 3.286158D+00
              MO Center=  2.0D-01, -3.6D-01, -8.7D-01, r^2= 1.3D+00
   Bfn.  Coefficient  Atom+Function         Bfn.  Coefficient  Atom+Function  
  ----- ------------  ---------------      ----- ------------  ---------------
   448     -2.357701  77 C  py              434      2.294832  76 C  s         
    22      1.868338   3 Ni s                 8      1.773232   1 C  py        
   452     -1.780060  78 C  s                 3     -1.286546   1 C  s         
   447     -1.272700  77 C  px               31      1.262317   3 Ni py        
     7      1.142657   1 C  px              449      1.123507  77 C  pz        

 Vector  534  Occ=0.000000D+00  E= 3.372533D+00
              MO Center=  8.4D-02, -4.6D-01, -8.3D-01, r^2= 1.4D+00
   Bfn.  Coefficient  Atom+Function         Bfn.  Coefficient  Atom+Function  
  ----- ------------  ---------------      ----- ------------  ---------------
   487      1.847322  85 C  s               475     -1.713743  83 C  pz        
    64      1.581931   4 C  py               77     -1.301564   6 N  s         
    63     -1.241362   4 C  px              478     -1.207551  84 C  s         
    22      1.078429   3 Ni s                30     -1.024158   3 Ni px        
    35      0.999383   3 Ni pz              473      1.002776  83 C  px        

 Vector  535  Occ=0.000000D+00  E= 4.760971D+00
              MO Center=  9.2D-02, -4.0D-01, -8.4D-01, r^2= 6.3D-01
   Bfn.  Coefficient  Atom+Function         Bfn.  Coefficient  Atom+Function  
  ----- ------------  ---------------      ----- ------------  ---------------
    46      1.040731   3 Ni dxy              45     -0.938047   3 Ni dxx       
    22      0.878845   3 Ni s                49      0.841575   3 Ni dyz       
    40     -0.833909   3 Ni dxy             487      0.730979  85 C  s         
    43     -0.669441   3 Ni dyz              39      0.664977   3 Ni dxx       
    59     -0.628764   4 C  s                56     -0.611202   3 Ni dzz       

 Vector  536  Occ=0.000000D+00  E= 4.804964D+00
              MO Center=  8.5D-02, -4.3D-01, -8.2D-01, r^2= 6.8D-01
   Bfn.  Coefficient  Atom+Function         Bfn.  Coefficient  Atom+Function  
  ----- ------------  ---------------      ----- ------------  ---------------
    95      1.379967   8 C  s               443      1.339767  77 C  s         
    49     -1.214541   3 Ni dyz               3     -1.093107   1 C  s         
     9     -1.092957   1 C  pz              447     -0.984636  77 C  px        
    43      0.956666   3 Ni dyz              47     -0.952660   3 Ni dxz       
   135     -0.904967  14 C  s                 7     -0.847695   1 C  px        

 Vector  537  Occ=0.000000D+00  E= 4.829546D+00
              MO Center=  1.0D-01, -3.9D-01, -8.5D-01, r^2= 6.6D-01
   Bfn.  Coefficient  Atom+Function         Bfn.  Coefficient  Atom+Function  
  ----- ------------  ---------------      ----- ------------  ---------------
    64      1.270523   4 C  py               48      1.144469   3 Ni dyy       
    22     -1.114642   3 Ni s                68      1.067021   5 N  s         
    77     -0.916792   6 N  s                 3      0.827764   1 C  s         
    56      0.825041   3 Ni dzz              50     -0.804679   3 Ni dzz       
    42     -0.797200   3 Ni dyy              33     -0.725143   3 Ni px        

 Vector  538  Occ=0.000000D+00  E= 4.851444D+00
              MO Center=  7.0D-02, -4.2D-01, -8.4D-01, r^2= 6.7D-01
   Bfn.  Coefficient  Atom+Function         Bfn.  Coefficient  Atom+Function  
  ----- ------------  ---------------      ----- ------------  ---------------
    22      4.113440   3 Ni s                47      1.477021   3 Ni dxz       
     3     -1.406344   1 C  s                46     -1.316123   3 Ni dxy       
    34      1.178408   3 Ni py               41     -1.144295   3 Ni dxz       
    53     -1.048602   3 Ni dxz              40      1.022577   3 Ni dxy       
    52      0.913738   3 Ni dxy              56     -0.835605   3 Ni dzz       

 Vector  539  Occ=0.000000D+00  E= 5.050132D+00
              MO Center=  9.6D-02, -4.1D-01, -8.4D-01, r^2= 6.9D-01
   Bfn.  Coefficient  Atom+Function         Bfn.  Coefficient  Atom+Function  
  ----- ------------  ---------------      ----- ------------  ---------------
    22      2.004659   3 Ni s                49     -1.419270   3 Ni dyz       
    55      1.380277   3 Ni dyz              46      1.337978   3 Ni dxy       
    52     -1.299190   3 Ni dxy              47      1.084041   3 Ni dxz       
    53     -1.045719   3 Ni dxz              43      1.035106   3 Ni dyz       
    40     -0.974381   3 Ni dxy              63     -0.902734   4 C  px        

 Vector  540  Occ=0.000000D+00  E= 1.022045D+01
              MO Center=  1.0D-01, -4.1D-01, -8.4D-01, r^2= 6.6D-01
   Bfn.  Coefficient  Atom+Function         Bfn.  Coefficient  Atom+Function  
  ----- ------------  ---------------      ----- ------------  ---------------
    21     27.792439   3 Ni s                20    -17.553045   3 Ni s         
    45     -7.602113   3 Ni dxx              48     -7.596156   3 Ni dyy       
    50     -7.556967   3 Ni dzz              22      4.786549   3 Ni s         
    23     -1.994711   3 Ni s                19      1.510738   3 Ni s         
    56     -0.752935   3 Ni dzz             487      0.738393  85 C  s         

 Vector  541  Occ=0.000000D+00  E= 4.990324D+01
              MO Center=  9.3D-02, -4.0D-01, -8.4D-01, r^2= 1.1D-01
   Bfn.  Coefficient  Atom+Function         Bfn.  Coefficient  Atom+Function  
  ----- ------------  ---------------      ----- ------------  ---------------
    20     21.441651   3 Ni s                21    -20.734057   3 Ni s         
    45      5.171459   3 Ni dxx              48      5.168788   3 Ni dyy       
    50      5.160260   3 Ni dzz              19     -4.353641   3 Ni s         
    39     -2.734842   3 Ni dxx              42     -2.734041   3 Ni dyy       
    44     -2.731162   3 Ni dzz              22     -2.057211   3 Ni s         

 Vector  542  Occ=0.000000D+00  E= 1.173864D+02
              MO Center=  9.2D-02, -4.0D-01, -8.4D-01, r^2= 2.9D-02
   Bfn.  Coefficient  Atom+Function         Bfn.  Coefficient  Atom+Function  
  ----- ------------  ---------------      ----- ------------  ---------------
    26      0.835375   3 Ni pz               24      0.527205   3 Ni px        
    25     -0.397958   3 Ni py               29     -0.316946   3 Ni pz        
    27     -0.199959   3 Ni px               22     -0.198167   3 Ni s         
    32      0.165438   3 Ni pz               28      0.151018   3 Ni py        
    30      0.104557   3 Ni px               33     -0.093175   3 Ni px        

 Vector  543  Occ=0.000000D+00  E= 1.175618D+02
              MO Center=  9.3D-02, -4.0D-01, -8.4D-01, r^2= 3.1D-02
   Bfn.  Coefficient  Atom+Function         Bfn.  Coefficient  Atom+Function  
  ----- ------------  ---------------      ----- ------------  ---------------
    25      0.922374   3 Ni py               24      0.522479   3 Ni px        
    28     -0.356409   3 Ni py               27     -0.201864   3 Ni px        
   448     -0.199981  77 C  py               31      0.197365   3 Ni py        
   434      0.192181  76 C  s               452     -0.159952  78 C  s         
     8      0.151571   1 C  py               22      0.150383   3 Ni s         

 Vector  544  Occ=0.000000D+00  E= 1.175935D+02
              MO Center=  9.2D-02, -4.0D-01, -8.4D-01, r^2= 3.1D-02
   Bfn.  Coefficient  Atom+Function         Bfn.  Coefficient  Atom+Function  
  ----- ------------  ---------------      ----- ------------  ---------------
    24      0.764647   3 Ni px               26     -0.651994   3 Ni pz        
    25     -0.355623   3 Ni py               27     -0.296996   3 Ni px        
    29      0.253281   3 Ni pz               30      0.166989   3 Ni px        
    32     -0.142285   3 Ni pz               28      0.138090   3 Ni py        
    64     -0.133472   4 C  py              487     -0.125582  85 C  s         

 Vector  545  Occ=0.000000D+00  E= 6.766356D+02
              MO Center=  9.2D-02, -4.0D-01, -8.4D-01, r^2= 2.3D-02
   Bfn.  Coefficient  Atom+Function         Bfn.  Coefficient  Atom+Function  
  ----- ------------  ---------------      ----- ------------  ---------------
    20     28.866129   3 Ni s                21    -15.336781   3 Ni s         
    39     -7.285651   3 Ni dxx              42     -7.285534   3 Ni dyy       
    44     -7.286316   3 Ni dzz              19     -4.275319   3 Ni s         
    45      3.403170   3 Ni dxx              48      3.402734   3 Ni dyy       
    50      3.405414   3 Ni dzz              54      0.115410   3 Ni dyy       


 center of mass
 --------------
 x =   0.05468386 y =  -0.02055078 z =  -0.03727264

 moments of inertia (a.u.)
 ------------------
       25647.566776790478          -0.000000000000          -0.000000000002
          -0.000000000000       20500.380163396640           0.000000000000
          -0.000000000002           0.000000000000       29190.743551848071

     Multipole analysis of the density
     ---------------------------------

     L   x y z        total         alpha         beta         nuclear
     -   - - -        -----         -----         ----         -------
     0   0 0 0      0.000000   -172.000000   -172.000000    344.000000

     1   1 0 0     -1.916484     -0.091627     -0.091627     -1.733230
     1   0 1 0      0.981474     -3.309008     -3.309008      7.599489
     1   0 0 1      2.089927     -6.890426     -6.890426     15.870780

     2   2 0 0   -203.302565  -3459.381713  -3459.381713   6715.460860
     2   1 1 0      4.480937      3.975976      3.975976     -3.471015
     2   1 0 1      3.567605    -45.447268    -45.447268     94.462142
     2   0 2 0   -210.092530  -4829.682730  -4829.682730   9449.272929
     2   0 1 1     -2.850413      2.938410      2.938410     -8.727234
     2   0 0 2   -206.888052  -2555.934732  -2555.934732   4904.981412


 Task  times  cpu:     2784.8s     wall:     2784.8s


                                NWChem Input Module
                                -------------------


 Summary of allocated global arrays
-----------------------------------
  No active global arrays


MA_summarize_allocated_blocks: starting scan ...
heap block 'gridpts', handle 95, address 0x582a491d91e0:
	type of elements:		double precision
	number of elements:		203683869
	address of client space:	0x582a491d9240
	index for client space:		15995683
	total number of bytes:		1629471056
MA_summarize_allocated_blocks: scan completed: 1 heap block, 0 stack blocks
MA usage statistics:

	allocation statistics:
					      heap	     stack
					      ----	     -----
	current number of blocks	         1	         0
	maximum number of blocks	        34	        58
	current total bytes		1629471056	         0
	maximum total bytes		1648841992	  44669256
	maximum total K-bytes		   1648842	     44670
	maximum total M-bytes		      1649	        45


                                     CITATION
                                     --------
                Please cite the following reference when publishing
                           results obtained with NWChem:

          E. Apra, E. J. Bylaska, W. A. de Jong, N. Govind, K. Kowalski,
       T. P. Straatsma, M. Valiev, H. J. J. van Dam, Y. Alexeev, J. Anchell,
       V. Anisimov, F. W. Aquino, R. Atta-Fynn, J. Autschbach, N. P. Bauman,
     J. C. Becca, D. E. Bernholdt, K. Bhaskaran-Nair, S. Bogatko, P. Borowski,
         J. Boschen, J. Brabec, A. Bruner, E. Cauet, Y. Chen, G. N. Chuev,
      C. J. Cramer, J. Daily, M. J. O. Deegan, T. H. Dunning Jr., M. Dupuis,
   K. G. Dyall, G. I. Fann, S. A. Fischer, A. Fonari, H. Fruchtl, L. Gagliardi,
      J. Garza, N. Gawande, S. Ghosh, K. Glaesemann, A. W. Gotz, J. Hammond,
       V. Helms, E. D. Hermes, K. Hirao, S. Hirata, M. Jacquelin, L. Jensen,
   B. G. Johnson, H. Jonsson, R. A. Kendall, M. Klemm, R. Kobayashi, V. Konkov,
      S. Krishnamoorthy, M. Krishnan, Z. Lin, R. D. Lins, R. J. Littlefield,
      A. J. Logsdail, K. Lopata, W. Ma, A. V. Marenich, J. Martin del Campo,
   D. Mejia-Rodriguez, J. E. Moore, J. M. Mullin, T. Nakajima, D. R. Nascimento,
    J. A. Nichols, P. J. Nichols, J. Nieplocha, A. Otero-de-la-Roza, B. Palmer,
    A. Panyala, T. Pirojsirikul, B. Peng, R. Peverati, J. Pittner, L. Pollack,
   R. M. Richard, P. Sadayappan, G. C. Schatz, W. A. Shelton, D. W. Silverstein,
   D. M. A. Smith, T. A. Soares, D. Song, M. Swart, H. L. Taylor, G. S. Thomas,
            V. Tipparaju, D. G. Truhlar, K. Tsemekhman, T. Van Voorhis,
      A. Vazquez-Mayagoitia, P. Verma, O. Villa, A. Vishnu, K. D. Vogiatzis,
        D. Wang, J. H. Weare, M. J. Williamson, T. L. Windus, K. Wolinski,
        A. T. Wong, Q. Wu, C. Yang, Q. Yu, M. Zacharias, Z. Zhang, Y. Zhao,
                                and R. J. Harrison
                        "NWChem: Past, present, and future
                         J. Chem. Phys. 152, 184102 (2020)
                               doi:10.1063/5.0004997

                                      AUTHORS
                                      -------
  E. Apra, E. J. Bylaska, N. Govind, K. Kowalski, M. Valiev, D. Mejia-Rodriguez,
       A. Kunitsa, N. P. Bauman, A. Panyala, W. A. de Jong, T. P. Straatsma,
   H. J. J. van Dam, D. Wang, T. L. Windus, J. Hammond, J. Autschbach, A. Woods,
    K. Bhaskaran-Nair, J. Brabec, K. Lopata, S. A. Fischer, S. Krishnamoorthy,
     M. Jacquelin, W. Ma, M. Klemm, O. Villa, Y. Chen, V. Anisimov, F. Aquino,
     S. Hirata, M. T. Hackler, E. Hermes, L. Jensen, J. E. Moore, J. C. Becca,
      V. Konjkov, T. Risthaus, M. Malagoli, A. Marenich, A. Otero-de-la-Roza,
        J. Mullin, P. Nichols, R. Peverati, J. Pittner, Y. Zhao, P.-D. Fan,
        A. Fonari, M. J. Williamson, R. J. Harrison, J. R. Rehr, M. Dupuis,
     D. Silverstein, D. M. A. Smith, J. Nieplocha, V. Tipparaju, M. Krishnan,
     B. E. Van Kuiken, A. Vazquez-Mayagoitia, M. Swart, Q. Wu, T. Van Voorhis,
     A. A. Auer, M. Nooijen, L. D. Crosby, E. Brown, G. Cisneros, G. I. Fann,
   H. Fruchtl, J. Garza, K. Hirao, R. A. Kendall, J. A. Nichols, K. Tsemekhman,
    K. Wolinski, J. Anchell, D. E. Bernholdt, P. Borowski, T. Clark, D. Clerc,
   H. Dachsel, M. J. O. Deegan, K. Dyall, D. Elwood, E. Glendening, M. Gutowski,
   A. C. Hess, J. Jaffe, B. G. Johnson, J. Ju, R. Kobayashi, R. Kutteh, Z. Lin,
   R. Littlefield, X. Long, B. Meng, T. Nakajima, S. Niu, L. Pollack, M. Rosing,
   K. Glaesemann, G. Sandrone, M. Stave, H. Taylor, G. Thomas, J. H. van Lenthe,
                               A. T. Wong, Z. Zhang.

 Total times  cpu:     2785.3s     wall:     2785.3s
