 argument  1 = nwchem.in
  NWChem w/ OpenMP: maximum threads =    1
                                         
                                         


             Northwest Computational Chemistry Package (NWChem) 7.2.3
             --------------------------------------------------------


                    Environmental Molecular Sciences Laboratory
                       Pacific Northwest National Laboratory
                                Richland, WA 99352

                              Copyright (c) 1994-2022
                       Pacific Northwest National Laboratory
                            Battelle Memorial Institute

             NWChem is an open-source computational chemistry package
                        distributed under the terms of the
                      Educational Community License (ECL) 2.0
             A copy of the license is included with this distribution
                              in the LICENSE.TXT file

                                  ACKNOWLEDGMENT
                                  --------------

            This software and its documentation were developed at the
            EMSL at Pacific Northwest National Laboratory, a multiprogram
            national laboratory, operated for the U.S. Department of Energy
            by Battelle under Contract Number DE-AC05-76RL01830. Support
            for this work was provided by the Department of Energy Office
            of Biological and Environmental Research, Office of Basic
            Energy Sciences, and the Office of Advanced Scientific Computing.


           Job information
           ---------------

    hostname        = 3fa21fec80f9
    program         = nwchem
    date            = Fri Jun 27 20:04:53 2025

    compiled        = Fri_May_02_22:05:35_2025
    source          = /opt/nwchem
    nwchem branch   = 7.2.3
    nwchem revision = N/A
    ga revision     = 5.9.1
    use scalapack   = T
    input           = nwchem.in
    prefix          = ni_singlepoint.
    data base       = ./ni_singlepoint.db
    status          = startup
    nproc           =       12
    time left       =     -1s



           Memory information
           ------------------

    heap     =    509724444 doubles =     3888.9 Mbytes
    stack    =    509724445 doubles =     3888.9 Mbytes
    global   =    291271111 doubles =     2222.2 Mbytes (distinct from heap & stack)
    total    =   1310720000 doubles =    10000.0 Mbytes
    verify   = yes
    hardfail = no 


           Directory information
           ---------------------

  0 permanent = .
  0 scratch   = .




                                NWChem Input Module
                                -------------------


                          Ni complex single-point energy
                          ------------------------------

 Scaling coordinates for geometry "geometry" by  1.889725989
 (inverse scale =  0.529177249)

 C1  symmetry detected

          ------
          auto-z
          ------
  no constraints, skipping    0.0000000000000000     
  no constraints, skipping    0.0000000000000000     


                             Geometry "geometry" -> ""
                             -------------------------

 Output coordinates in angstroms (scale by  1.889725989 to convert to a.u.)

  No.       Tag          Charge          X              Y              Z
 ---- ---------------- ---------- -------------- -------------- --------------
    1 C                    6.0000     1.77825606     0.57869973    -1.55400891
    2 O                    8.0000     1.44616056     1.28123466    -2.51672061
    3 Ni                  28.0000     0.22481013    -0.35310439    -0.59311731
    4 C                    6.0000    -1.34148033     0.13906510     0.29504815
    5 N                    7.0000    -2.20564067    -0.78949614     0.76624870
    6 N                    7.0000    -1.90839736     1.33622183     0.52260644
    7 C                    6.0000    -3.36992542    -0.22667832     1.44935338
    8 C                    6.0000    -1.88604091    -2.17881141     0.77602866
    9 C                    6.0000    -3.27741622     1.24518718     1.03555804
   10 C                    6.0000    -1.34794087     2.58288619     0.10809655
   11 H                    1.0000    -4.29080175    -0.70830625     1.11415834
   12 H                    1.0000    -3.28769284    -0.36410203     2.53430267
   13 C                    6.0000    -2.35305734    -2.98621191    -0.26546762
   14 C                    6.0000    -1.09702575    -2.69365855     1.80965391
   15 H                    1.0000    -3.99103806     1.49720294     0.24431763
   16 H                    1.0000    -3.42952811     1.93337024     1.86783687
   17 C                    6.0000    -0.69667423     3.36604319     1.06419370
   18 C                    6.0000    -1.47719912     2.99074583    -1.22336909
   19 C                    6.0000    -1.96345718    -4.32087634    -0.28780138
   20 C                    6.0000    -3.25648783    -2.44223631    -1.35304993
   21 C                    6.0000    -0.73409906    -4.03503311     1.75360309
   22 C                    6.0000    -0.65769968    -1.84028378     2.98227150
   23 C                    6.0000    -0.12773758     4.56557241     0.65186709
   24 C                    6.0000    -0.58388714     2.93741827     2.51365964
   25 C                    6.0000    -0.89351105     4.19687103    -1.59307322
   26 C                    6.0000    -2.28292213     2.19580962    -2.23212325
   27 C                    6.0000    -1.15128698    -4.83958175     0.70631608
   28 H                    1.0000    -2.29989577    -4.96241037    -1.09314276
   29 C                    6.0000    -4.58322175    -3.20312085    -1.39252812
   30 C                    6.0000    -2.55950906    -2.46693312    -2.71369116
   31 H                    1.0000    -3.47415033    -1.39877869    -1.11691605
   32 H                    1.0000    -0.11798229    -4.45442182     2.54020165
   33 C                    6.0000     0.86477146    -1.76449246     3.08643290
   34 C                    6.0000    -1.27845831    -2.36635094     4.27841144
   35 H                    1.0000    -1.01872986    -0.82369368     2.81710094
   36 C                    6.0000    -0.21700481     4.97393042    -0.66759687
   37 H                    1.0000     0.40097681     5.18122260     1.37009381
   38 C                    6.0000    -1.19886225     3.97762278     3.45205629
   39 C                    6.0000     0.87423243     2.66201462     2.87493207
   40 H                    1.0000    -1.13724938     2.00322273     2.63540942
   41 H                    1.0000    -0.96594106     4.53062063    -2.62071173
   42 C                    6.0000    -1.53992780     1.99609000    -3.55239979
   43 C                    6.0000    -3.63031566     2.88467088    -2.47613794
   44 H                    1.0000    -2.47262011     1.20673204    -1.80901495
   45 H                    1.0000    -0.85260295    -5.87900512     0.67151776
   46 H                    1.0000    -5.07253625    -3.19555823    -0.41679211
   47 H                    1.0000    -4.43255479    -4.24533058    -1.68074094
   48 H                    1.0000    -5.26024011    -2.75168384    -2.11968627
   49 H                    1.0000    -1.65069596    -1.86265994    -2.68873620
   50 H                    1.0000    -3.21840865    -2.07353170    -3.49081382
   51 H                    1.0000    -2.28335292    -3.48669086    -2.99283030
   52 H                    1.0000     1.28631602    -1.32006456     2.18305185
   53 H                    1.0000     1.30040081    -2.75775589     3.21812709
   54 H                    1.0000     1.16025730    -1.15361504     3.94242459
   55 H                    1.0000    -2.36503458    -2.43483343     4.19754089
   56 H                    1.0000    -1.03409461    -1.71308435     5.11772342
   57 H                    1.0000    -0.90106713    -3.36463245     4.50905512
   58 H                    1.0000     0.23984871     5.90587143    -0.97713183
   59 H                    1.0000    -2.24441089     4.17178088     3.20448940
   60 H                    1.0000    -0.66194617     4.92627587     3.38876183
   61 H                    1.0000    -1.14801132     3.63604541     4.48802147
   62 H                    1.0000     1.30415741     1.91210174     2.21074422
   63 H                    1.0000     0.96027763     2.30682920     3.90456698
   64 H                    1.0000     1.47347236     3.57062161     2.78098094
   65 H                    1.0000    -0.54736799     1.58097039    -3.38400232
   66 H                    1.0000    -1.42285351     2.94357077    -4.08402004
   67 H                    1.0000    -2.10980773     1.32789848    -4.20264124
   68 H                    1.0000    -4.17627344     3.05536126    -1.54572724
   69 H                    1.0000    -4.25593518     2.28638487    -3.14258100
   70 H                    1.0000    -3.47317833     3.85833454    -2.94612358
   71 N                    7.0000     1.70959001    -0.87057716    -1.70221807
   72 C                    6.0000     4.11243679     2.57281336     1.46919008
   73 C                    6.0000     3.57948430     3.24267390     0.37726363
   74 H                    1.0000     4.26860448     0.68586427     2.47406931
   75 C                    6.0000     3.86841903     1.21496467     1.61819830
   76 C                    6.0000     2.83356434     2.55676617    -0.56724822
   77 C                    6.0000     2.59176919     1.18723631    -0.43531372
   78 C                    6.0000     3.10446430     0.52803660     0.68553022
   79 H                    1.0000     2.42203371     3.06510332    -1.42872064
   80 H                    1.0000     2.91697674    -0.52282143     0.84564502
   81 H                    1.0000     4.70087707     3.10725498     2.20474107
   82 H                    1.0000     3.75095303     4.30523118     0.25296030
   83 C                    6.0000     2.74146964    -1.74409533    -1.20157311
   84 C                    6.0000     4.06095988    -1.53257434    -1.57597850
   85 C                    6.0000     2.40039166    -2.83171052    -0.41099347
   86 C                    6.0000     5.04767404    -2.40162651    -1.13744735
   87 H                    1.0000     4.31279708    -0.67798002    -2.19305996
   88 C                    6.0000     3.39276414    -3.70206652     0.01879989
   89 H                    1.0000     1.36265037    -2.98071589    -0.12774967
   90 C                    6.0000     4.71682072    -3.48998125    -0.34175491
   91 H                    1.0000     6.07753609    -2.22513984    -1.41709682
   92 H                    1.0000     3.12792792    -4.54615750     0.64193609
   93 H                    1.0000     5.48821593    -4.17489545    -0.01335807
   94 C                    6.0000     1.28185198    -1.31667157    -3.04535245
   95 H                    1.0000     2.11009752    -1.22279440    -3.75229230
   96 H                    1.0000     0.98024980    -2.36078396    -2.97217438
   97 H                    1.0000     0.45345439    -0.70515827    -3.38645805

      Atomic Mass 
      ----------- 

      C                 12.000000
      O                 15.994910
      Ni                57.935300
      N                 14.003070
      H                  1.007825


 Effective nuclear repulsion energy (a.u.)    7250.6036146809

            Nuclear Dipole moment (a.u.) 
            ----------------------------
        X                 Y               Z
 ---------------- ---------------- ----------------
    -0.0000000000     0.0000000000     0.0000000000



                                Z-matrix (autoz)
                                -------- 

 Units are Angstrom for bonds and degrees for angles

      Type          Name      I     J     K     L     M      Value
      ----------- --------  ----- ----- ----- ----- ----- ----------
    1 Stretch                  1     2                       1.23720
    2 Stretch                  1     3                       2.05055
    3 Stretch                  1    71                       1.45845
    4 Stretch                  1    77                       1.51116
    5 Stretch                  3     4                       1.86664
    6 Stretch                  3    71                       1.92418
    7 Stretch                  4     5                       1.35316
    8 Stretch                  4     6                       1.34401
    9 Stretch                  5     7                       1.46252
   10 Stretch                  5     8                       1.42564
   11 Stretch                  6     9                       1.46479
   12 Stretch                  6    10                       1.42832
   13 Stretch                  7     9                       1.53172
   14 Stretch                  7    11                       1.09194
   15 Stretch                  7    12                       1.09671
   16 Stretch                  8    13                       1.39811
   17 Stretch                  8    14                       1.39857
   18 Stretch                  9    15                       1.09491
   19 Stretch                  9    16                       1.09061
   20 Stretch                 10    17                       1.39700
   21 Stretch                 10    18                       1.39852
   22 Stretch                 13    19                       1.39055
   23 Stretch                 13    20                       1.51490
   24 Stretch                 14    21                       1.39073
   25 Stretch                 14    22                       1.51535
   26 Stretch                 17    23                       1.39017
   27 Stretch                 17    24                       1.51571
   28 Stretch                 18    25                       1.39000
   29 Stretch                 18    26                       1.51615
   30 Stretch                 19    27                       1.38454
   31 Stretch                 19    28                       1.08320
   32 Stretch                 20    29                       1.52994
   33 Stretch                 20    30                       1.52896
   34 Stretch                 20    31                       1.09176
   35 Stretch                 21    27                       1.38497
   36 Stretch                 21    32                       1.08362
   37 Stretch                 22    33                       1.52791
   38 Stretch                 22    34                       1.53038
   39 Stretch                 22    35                       1.09137
   40 Stretch                 23    36                       1.38409
   41 Stretch                 23    37                       1.08370
   42 Stretch                 24    38                       1.52997
   43 Stretch                 24    39                       1.52725
   44 Stretch                 24    40                       1.09259
   45 Stretch                 25    36                       1.38491
   46 Stretch                 25    41                       1.08290
   47 Stretch                 26    42                       1.52809
   48 Stretch                 26    43                       1.53282
   49 Stretch                 26    44                       1.09237
   50 Stretch                 27    45                       1.08205
   51 Stretch                 29    46                       1.09158
   52 Stretch                 29    47                       1.09177
   53 Stretch                 29    48                       1.09129
   54 Stretch                 30    49                       1.09165
   55 Stretch                 30    50                       1.09217
   56 Stretch                 30    51                       1.09274
   57 Stretch                 33    52                       1.09147
   58 Stretch                 33    53                       1.09256
   59 Stretch                 33    54                       1.09234
   60 Stretch                 34    55                       1.09173
   61 Stretch                 34    56                       1.09129
   62 Stretch                 34    57                       1.09187
   63 Stretch                 36    58                       1.08307
   64 Stretch                 38    59                       1.09186
   65 Stretch                 38    60                       1.09189
   66 Stretch                 38    61                       1.09201
   67 Stretch                 39    62                       1.09011
   68 Stretch                 39    63                       1.09257
   69 Stretch                 39    64                       1.09247
   70 Stretch                 42    65                       1.08897
   71 Stretch                 42    66                       1.09272
   72 Stretch                 42    67                       1.09273
   73 Stretch                 43    68                       1.09219
   74 Stretch                 43    69                       1.09247
   75 Stretch                 43    70                       1.09252
   76 Stretch                 71    83                       1.44168
   77 Stretch                 71    94                       1.47850
   78 Stretch                 72    73                       1.38746
   79 Stretch                 72    75                       1.38762
   80 Stretch                 72    81                       1.08302
   81 Stretch                 73    76                       1.38527
   82 Stretch                 73    82                       1.08346
   83 Stretch                 74    75                       1.08287
   84 Stretch                 75    78                       1.38758
   85 Stretch                 76    77                       1.39696
   86 Stretch                 76    79                       1.08162
   87 Stretch                 77    78                       1.39775
   88 Stretch                 78    80                       1.07939
   89 Stretch                 83    84                       1.38780
   90 Stretch                 83    85                       1.38718
   91 Stretch                 84    86                       1.38606
   92 Stretch                 84    87                       1.08376
   93 Stretch                 85    88                       1.38818
   94 Stretch                 85    89                       1.08597
   95 Stretch                 86    90                       1.38820
   96 Stretch                 86    91                       1.08165
   97 Stretch                 88    90                       1.38856
   98 Stretch                 88    92                       1.08209
   99 Stretch                 90    93                       1.08259
  100 Stretch                 94    95                       1.09296
  101 Stretch                 94    96                       1.08926
  102 Stretch                 94    97                       1.08469
  103 Bend                     1     3     4               137.63182
  104 Bend                     1     3    71                42.90579
  105 Bend                     1    71     3                73.17290
  106 Bend                     1    71    83               122.21524
  107 Bend                     1    71    94               113.93874
  108 Bend                     1    77    76               114.71172
  109 Bend                     1    77    78               126.95442
  110 Bend                     2     1     3               114.79180
  111 Bend                     2     1    71               118.20050
  112 Bend                     2     1    77               119.46449
  113 Bend                     3     1    71                63.92131
  114 Bend                     3     1    77               104.11809
  115 Bend                     3     4     5               121.37419
  116 Bend                     3     4     6               132.01751
  117 Bend                     3    71    83               121.00304
  118 Bend                     3    71    94               112.42852
  119 Bend                     4     3    71               173.04983
  120 Bend                     4     5     7               114.01459
  121 Bend                     4     5     8               121.86760
  122 Bend                     4     6     9               113.46344
  123 Bend                     4     6    10               124.24968
  124 Bend                     5     4     6               106.43347
  125 Bend                     5     7     9               101.27567
  126 Bend                     5     7    11               110.99282
  127 Bend                     5     7    12               110.74168
  128 Bend                     5     8    13               118.86759
  129 Bend                     5     8    14               119.35960
  130 Bend                     6     9     7               102.16746
  131 Bend                     6     9    15               109.98531
  132 Bend                     6     9    16               111.00065
  133 Bend                     6    10    17               118.26905
  134 Bend                     6    10    18               119.64156
  135 Bend                     7     5     8               123.38666
  136 Bend                     7     9    15               112.15027
  137 Bend                     7     9    16               113.06446
  138 Bend                     8    13    19               118.20723
  139 Bend                     8    13    20               121.77867
  140 Bend                     8    14    21               118.19642
  141 Bend                     8    14    22               121.88069
  142 Bend                     9     6    10               121.50705
  143 Bend                     9     7    11               113.06930
  144 Bend                     9     7    12               112.52802
  145 Bend                    10    17    23               118.13308
  146 Bend                    10    17    24               122.04870
  147 Bend                    10    18    25               117.87000
  148 Bend                    10    18    26               121.98171
  149 Bend                    11     7    12               108.15850
  150 Bend                    13     8    14               121.76301
  151 Bend                    13    19    27               120.82425
  152 Bend                    13    19    28               119.56261
  153 Bend                    13    20    29               110.92190
  154 Bend                    13    20    30               111.17602
  155 Bend                    13    20    31               107.86735
  156 Bend                    14    21    27               120.80802
  157 Bend                    14    21    32               119.49911
  158 Bend                    14    22    33               111.68931
  159 Bend                    14    22    34               110.13314
  160 Bend                    14    22    35               108.15261
  161 Bend                    15     9    16               108.38117
  162 Bend                    17    10    18               122.08492
  163 Bend                    17    23    36               120.72607
  164 Bend                    17    23    37               119.55680
  165 Bend                    17    24    38               111.36833
  166 Bend                    17    24    39               110.38035
  167 Bend                    17    24    40               108.09935
  168 Bend                    18    25    36               120.94723
  169 Bend                    18    25    41               119.45519
  170 Bend                    18    26    42               112.64322
  171 Bend                    18    26    43               109.72024
  172 Bend                    18    26    44               108.01790
  173 Bend                    19    13    20               120.01385
  174 Bend                    19    27    21               120.13311
  175 Bend                    19    27    45               119.91508
  176 Bend                    20    29    46               111.23616
  177 Bend                    20    29    47               111.21635
  178 Bend                    20    29    48               110.45347
  179 Bend                    20    30    49               110.50049
  180 Bend                    20    30    50               110.63278
  181 Bend                    20    30    51               110.95296
  182 Bend                    21    14    22               119.91379
  183 Bend                    21    27    45               119.94703
  184 Bend                    22    33    52               110.40262
  185 Bend                    22    33    53               111.12628
  186 Bend                    22    33    54               110.53057
  187 Bend                    22    34    55               111.25587
  188 Bend                    22    34    56               110.77989
  189 Bend                    22    34    57               110.67034
  190 Bend                    23    17    24               119.81436
  191 Bend                    23    36    25               120.19968
  192 Bend                    23    36    58               119.94130
  193 Bend                    24    38    59               111.51436
  194 Bend                    24    38    60               110.94608
  195 Bend                    24    38    61               110.51676
  196 Bend                    24    39    62               110.88286
  197 Bend                    24    39    63               110.90005
  198 Bend                    24    39    64               110.69369
  199 Bend                    25    18    26               120.07596
  200 Bend                    25    36    58               119.85854
  201 Bend                    26    42    65               111.06279
  202 Bend                    26    42    66               111.04576
  203 Bend                    26    42    67               109.90621
  204 Bend                    26    43    68               111.96419
  205 Bend                    26    43    69               110.75581
  206 Bend                    26    43    70               110.03338
  207 Bend                    27    19    28               119.61314
  208 Bend                    27    21    32               119.69286
  209 Bend                    29    20    30               111.36495
  210 Bend                    29    20    31               107.93985
  211 Bend                    30    20    31               107.38533
  212 Bend                    33    22    34               111.31487
  213 Bend                    33    22    35               107.08197
  214 Bend                    34    22    35               108.31208
  215 Bend                    36    23    37               119.71339
  216 Bend                    36    25    41               119.59709
  217 Bend                    38    24    39               111.17845
  218 Bend                    38    24    40               108.02301
  219 Bend                    39    24    40               107.63790
  220 Bend                    42    26    43               110.40160
  221 Bend                    42    26    44               107.50268
  222 Bend                    43    26    44               108.41647
  223 Bend                    46    29    47               107.72480
  224 Bend                    46    29    48               108.33998
  225 Bend                    47    29    48               107.73450
  226 Bend                    49    30    50               108.61022
  227 Bend                    49    30    51               108.18080
  228 Bend                    50    30    51               107.86924
  229 Bend                    52    33    53               108.41799
  230 Bend                    52    33    54               108.44558
  231 Bend                    53    33    54               107.82419
  232 Bend                    55    34    56               108.50492
  233 Bend                    55    34    57               107.59582
  234 Bend                    56    34    57               107.90557
  235 Bend                    59    38    60               107.65195
  236 Bend                    59    38    61               108.37988
  237 Bend                    60    38    61               107.68945
  238 Bend                    62    39    63               108.63203
  239 Bend                    62    39    64               107.66312
  240 Bend                    63    39    64               107.95238
  241 Bend                    65    42    66               107.94558
  242 Bend                    65    42    67               109.52790
  243 Bend                    66    42    67               107.25248
  244 Bend                    68    43    69               108.60251
  245 Bend                    68    43    70               107.40248
  246 Bend                    69    43    70               107.93908
  247 Bend                    71     1    77               120.04874
  248 Bend                    71    83    84               119.63567
  249 Bend                    71    83    85               119.80054
  250 Bend                    71    94    95               110.02559
  251 Bend                    71    94    96               107.95613
  252 Bend                    71    94    97               109.66553
  253 Bend                    72    73    76               120.28992
  254 Bend                    72    73    82               120.19743
  255 Bend                    72    75    74               119.86836
  256 Bend                    72    75    78               120.60215
  257 Bend                    73    72    75               119.30096
  258 Bend                    73    72    81               120.32873
  259 Bend                    73    76    77               120.94604
  260 Bend                    73    76    79               121.01202
  261 Bend                    74    75    78               119.52691
  262 Bend                    75    72    81               120.36464
  263 Bend                    75    78    77               120.49552
  264 Bend                    75    78    80               118.54797
  265 Bend                    76    73    82               119.51069
  266 Bend                    76    77    78               118.33353
  267 Bend                    77    76    79               118.04192
  268 Bend                    77    78    80               120.95651
  269 Bend                    83    71    94               109.86013
  270 Bend                    83    84    86               119.73085
  271 Bend                    83    84    87               119.65219
  272 Bend                    83    85    88               119.48927
  273 Bend                    83    85    89               119.41848
  274 Bend                    84    83    85               120.46649
  275 Bend                    84    86    90               120.21508
  276 Bend                    84    86    91               119.58392
  277 Bend                    85    88    90               120.36504
  278 Bend                    85    88    92               119.49884
  279 Bend                    86    84    87               120.60630
  280 Bend                    86    90    88               119.72512
  281 Bend                    86    90    93               120.00380
  282 Bend                    88    85    89               121.08733
  283 Bend                    88    90    93               120.26809
  284 Bend                    90    86    91               120.20084
  285 Bend                    90    88    92               120.13548
  286 Bend                    95    94    96               109.60966
  287 Bend                    95    94    97               109.08182
  288 Bend                    96    94    97               110.49127
  289 Torsion                  1     3     4     5         176.30099
  290 Torsion                  1     3     4     6           1.80581
  291 Torsion                  1     3    71    83         117.90668
  292 Torsion                  1     3    71    94        -109.49777
  293 Torsion                  1    71     3     4          98.19174
  294 Torsion                  1    71    83    84         -53.98358
  295 Torsion                  1    71    83    85         129.58563
  296 Torsion                  1    71    94    95          76.92610
  297 Torsion                  1    71    94    96        -163.49552
  298 Torsion                  1    71    94    97         -43.05814
  299 Torsion                  1    77    76    73        -179.24014
  300 Torsion                  1    77    76    79           0.70636
  301 Torsion                  1    77    78    75         178.26980
  302 Torsion                  1    77    78    80          -1.70496
  303 Torsion                  2     1     3     4         -59.06278
  304 Torsion                  2     1     3    71         110.69960
  305 Torsion                  2     1    71     3        -105.50329
  306 Torsion                  2     1    71    83         138.04284
  307 Torsion                  2     1    71    94           2.06528
  308 Torsion                  2     1    77    76           3.60911
  309 Torsion                  2     1    77    78        -176.60825
  310 Torsion                  3     1    71    83        -116.45388
  311 Torsion                  3     1    71    94         107.56857
  312 Torsion                  3     1    77    76        -126.08662
  313 Torsion                  3     1    77    78          53.69603
  314 Torsion                  3     4     5     7         179.25951
  315 Torsion                  3     4     5     8           8.74647
  316 Torsion                  3     4     6     9         168.55391
  317 Torsion                  3     4     6    10          -1.43051
  318 Torsion                  3    71     1    77          91.75383
  319 Torsion                  3    71    83    84        -142.80683
  320 Torsion                  3    71    83    85          40.76237
  321 Torsion                  3    71    94    95         157.75356
  322 Torsion                  3    71    94    96         -82.66807
  323 Torsion                  3    71    94    97          37.76932
  324 Torsion                  4     3     1    71        -169.76238
  325 Torsion                  4     3     1    77          73.38120
  326 Torsion                  4     3    71    83        -143.90158
  327 Torsion                  4     3    71    94         -11.30603
  328 Torsion                  4     5     7     9          13.34523
  329 Torsion                  4     5     7    11         133.64127
  330 Torsion                  4     5     7    12        -106.20962
  331 Torsion                  4     5     8    13         -97.36319
  332 Torsion                  4     5     8    14          81.51878
  333 Torsion                  4     6     9     7          14.37513
  334 Torsion                  4     6     9    15        -104.88863
  335 Torsion                  4     6     9    16         135.17581
  336 Torsion                  4     6    10    17        -102.05378
  337 Torsion                  4     6    10    18          78.69906
  338 Torsion                  5     4     3    71          85.64994
  339 Torsion                  5     4     6     9          -6.54755
  340 Torsion                  5     4     6    10        -176.53197
  341 Torsion                  5     7     9     6         -15.25440
  342 Torsion                  5     7     9    15         102.47298
  343 Torsion                  5     7     9    16        -134.61302
  344 Torsion                  5     8    13    19         176.00809
  345 Torsion                  5     8    13    20          -3.81285
  346 Torsion                  5     8    14    21        -176.26369
  347 Torsion                  5     8    14    22           4.83487
  348 Torsion                  6     4     3    71         -88.84524
  349 Torsion                  6     4     5     7          -5.00180
  350 Torsion                  6     4     5     8        -175.51484
  351 Torsion                  6     9     7    11        -134.06852
  352 Torsion                  6     9     7    12         103.01764
  353 Torsion                  6    10    17    23         178.66941
  354 Torsion                  6    10    17    24          -0.61396
  355 Torsion                  6    10    18    25        -178.66786
  356 Torsion                  6    10    18    26           4.42491
  357 Torsion                  7     5     8    13          93.02476
  358 Torsion                  7     5     8    14         -88.09328
  359 Torsion                  7     9     6    10        -175.33221
  360 Torsion                  8     5     7     9        -176.30568
  361 Torsion                  8     5     7    11         -56.00964
  362 Torsion                  8     5     7    12          64.13947
  363 Torsion                  8    13    19    27           0.95441
  364 Torsion                  8    13    19    28        -179.05209
  365 Torsion                  8    13    20    29        -120.92187
  366 Torsion                  8    13    20    30         114.58091
  367 Torsion                  8    13    20    31          -2.90641
  368 Torsion                  8    14    21    27          -0.42508
  369 Torsion                  8    14    21    32         179.62404
  370 Torsion                  8    14    22    33        -120.38366
  371 Torsion                  8    14    22    34         115.39039
  372 Torsion                  8    14    22    35          -2.79756
  373 Torsion                  9     6    10    17          88.73108
  374 Torsion                  9     6    10    18         -90.51608
  375 Torsion                 10     6     9    15          65.40403
  376 Torsion                 10     6     9    16         -54.53153
  377 Torsion                 10    17    23    36           0.56569
  378 Torsion                 10    17    23    37        -178.72890
  379 Torsion                 10    17    24    38        -122.16268
  380 Torsion                 10    17    24    39         113.83662
  381 Torsion                 10    17    24    40          -3.64623
  382 Torsion                 10    18    25    36          -0.59612
  383 Torsion                 10    18    25    41         179.14667
  384 Torsion                 10    18    26    42        -133.17227
  385 Torsion                 10    18    26    43         103.40783
  386 Torsion                 10    18    26    44         -14.59420
  387 Torsion                 11     7     9    15         -16.34115
  388 Torsion                 11     7     9    16         106.57285
  389 Torsion                 12     7     9    15        -139.25499
  390 Torsion                 12     7     9    16         -16.34099
  391 Torsion                 13     8    14    21           2.58473
  392 Torsion                 13     8    14    22        -176.31671
  393 Torsion                 13    19    27    21           1.12911
  394 Torsion                 13    19    27    45        -179.66689
  395 Torsion                 13    20    29    46          54.84853
  396 Torsion                 13    20    29    47         -65.23278
  397 Torsion                 13    20    29    48         175.19478
  398 Torsion                 13    20    30    49         -59.70249
  399 Torsion                 13    20    30    50         179.97686
  400 Torsion                 13    20    30    51          60.28907
  401 Torsion                 14     8    13    19          -2.84583
  402 Torsion                 14     8    13    20         177.33323
  403 Torsion                 14    21    27    19          -1.40129
  404 Torsion                 14    21    27    45         179.39496
  405 Torsion                 14    22    33    52          60.56198
  406 Torsion                 14    22    33    53         -59.77618
  407 Torsion                 14    22    33    54        -179.45327
  408 Torsion                 14    22    34    55         -54.67259
  409 Torsion                 14    22    34    56        -175.46024
  410 Torsion                 14    22    34    57          64.89457
  411 Torsion                 17    10    18    25           2.11472
  412 Torsion                 17    10    18    26        -174.79251
  413 Torsion                 17    23    36    25           0.89067
  414 Torsion                 17    23    36    58        -179.36104
  415 Torsion                 17    24    38    59          56.98945
  416 Torsion                 17    24    38    60         -63.00401
  417 Torsion                 17    24    38    61         177.61343
  418 Torsion                 17    24    39    62         -56.53871
  419 Torsion                 17    24    39    63        -177.31743
  420 Torsion                 17    24    39    64          62.88511
  421 Torsion                 18    10    17    23          -2.10287
  422 Torsion                 18    10    17    24         178.61377
  423 Torsion                 18    25    36    23          -0.87469
  424 Torsion                 18    25    36    58         179.37681
  425 Torsion                 18    26    42    65          52.37758
  426 Torsion                 18    26    42    66         -67.75216
  427 Torsion                 18    26    42    67         173.73796
  428 Torsion                 18    26    43    68         -54.31260
  429 Torsion                 18    26    43    69        -175.69068
  430 Torsion                 18    26    43    70          65.04859
  431 Torsion                 19    13    20    29          59.26035
  432 Torsion                 19    13    20    30         -65.23686
  433 Torsion                 19    13    20    31         177.27582
  434 Torsion                 19    27    21    32         178.54949
  435 Torsion                 20    13    19    27        -179.22137
  436 Torsion                 20    13    19    28           0.77212
  437 Torsion                 21    14    22    33          60.73336
  438 Torsion                 21    14    22    34         -63.49259
  439 Torsion                 21    14    22    35         178.31946
  440 Torsion                 21    27    19    28        -178.86439
  441 Torsion                 22    14    21    27         178.49870
  442 Torsion                 22    14    21    32          -1.45218
  443 Torsion                 23    17    24    38          58.56570
  444 Torsion                 23    17    24    39         -65.43500
  445 Torsion                 23    17    24    40         177.08215
  446 Torsion                 23    36    25    41         179.38288
  447 Torsion                 24    17    23    36         179.86561
  448 Torsion                 24    17    23    37           0.57102
  449 Torsion                 25    18    26    42          49.98721
  450 Torsion                 25    18    26    43         -73.43268
  451 Torsion                 25    18    26    44         168.56529
  452 Torsion                 25    36    23    37        -179.81583
  453 Torsion                 26    18    25    36         176.37245
  454 Torsion                 26    18    25    41          -3.88476
  455 Torsion                 28    19    27    45           0.33962
  456 Torsion                 29    20    30    49         176.05080
  457 Torsion                 29    20    30    50          55.73015
  458 Torsion                 29    20    30    51         -63.95764
  459 Torsion                 30    20    29    46         179.23851
  460 Torsion                 30    20    29    47          59.15719
  461 Torsion                 30    20    29    48         -60.41525
  462 Torsion                 31    20    29    46         -63.12287
  463 Torsion                 31    20    29    47         176.79581
  464 Torsion                 31    20    29    48          57.22337
  465 Torsion                 31    20    30    49          58.07736
  466 Torsion                 31    20    30    50         -62.24329
  467 Torsion                 31    20    30    51         178.06892
  468 Torsion                 32    21    27    45          -0.65426
  469 Torsion                 33    22    34    55        -179.11451
  470 Torsion                 33    22    34    56          60.09784
  471 Torsion                 33    22    34    57         -59.54735
  472 Torsion                 34    22    33    52        -175.87761
  473 Torsion                 34    22    33    53          63.78423
  474 Torsion                 34    22    33    54         -55.89286
  475 Torsion                 35    22    33    52         -57.66605
  476 Torsion                 35    22    33    53        -178.00421
  477 Torsion                 35    22    33    54          62.31870
  478 Torsion                 35    22    34    55          63.41714
  479 Torsion                 35    22    34    56         -57.37051
  480 Torsion                 35    22    34    57        -177.01570
  481 Torsion                 37    23    36    58          -0.06754
  482 Torsion                 38    24    39    62         179.35121
  483 Torsion                 38    24    39    63          58.57248
  484 Torsion                 38    24    39    64         -61.22498
  485 Torsion                 39    24    38    59        -179.46267
  486 Torsion                 39    24    38    60          60.54388
  487 Torsion                 39    24    38    61         -58.83868
  488 Torsion                 40    24    38    59         -61.57277
  489 Torsion                 40    24    38    60         178.43378
  490 Torsion                 40    24    38    61          59.05122
  491 Torsion                 40    24    39    62          61.22840
  492 Torsion                 40    24    39    63         -59.55032
  493 Torsion                 40    24    39    64        -179.34778
  494 Torsion                 41    25    36    58          -0.36562
  495 Torsion                 42    26    43    68        -179.03959
  496 Torsion                 42    26    43    69          59.58234
  497 Torsion                 42    26    43    70         -59.67839
  498 Torsion                 43    26    42    65         175.41767
  499 Torsion                 43    26    42    66          55.28793
  500 Torsion                 43    26    42    67         -63.22194
  501 Torsion                 44    26    42    65         -66.50157
  502 Torsion                 44    26    42    66         173.36870
  503 Torsion                 44    26    42    67          54.85882
  504 Torsion                 44    26    43    68          63.44144
  505 Torsion                 44    26    43    69         -57.93663
  506 Torsion                 44    26    43    70        -177.19736
  507 Torsion                 71     1    77    76         166.13438
  508 Torsion                 71     1    77    78         -14.08297
  509 Torsion                 71     3     1    77        -116.85642
  510 Torsion                 71    83    84    86        -177.52296
  511 Torsion                 71    83    84    87           3.65689
  512 Torsion                 71    83    85    88         177.17700
  513 Torsion                 71    83    85    89          -3.62111
  514 Torsion                 72    73    76    77           0.63840
  515 Torsion                 72    73    76    79        -179.30650
  516 Torsion                 72    75    78    77           1.37738
  517 Torsion                 72    75    78    80        -178.64726
  518 Torsion                 73    72    75    74        -179.16883
  519 Torsion                 73    72    75    78           0.24398
  520 Torsion                 73    76    77    78           0.95719
  521 Torsion                 74    75    72    81          -0.03228
  522 Torsion                 74    75    78    77        -179.20782
  523 Torsion                 74    75    78    80           0.76755
  524 Torsion                 75    72    73    76          -1.24490
  525 Torsion                 75    72    73    82         179.26710
  526 Torsion                 75    78    77    76          -1.95453
  527 Torsion                 76    73    72    81         179.61823
  528 Torsion                 76    77    78    80         178.07071
  529 Torsion                 77     1    71    83         -24.70005
  530 Torsion                 77     1    71    94        -160.67761
  531 Torsion                 77    76    73    82        -179.87009
  532 Torsion                 78    75    72    81         179.38053
  533 Torsion                 78    77    76    79        -179.09631
  534 Torsion                 79    76    73    82           0.18500
  535 Torsion                 81    72    73    82           0.13023
  536 Torsion                 83    71    94    95         -64.38179
  537 Torsion                 83    71    94    96          55.19658
  538 Torsion                 83    71    94    97         175.63397
  539 Torsion                 83    84    86    90           0.86652
  540 Torsion                 83    84    86    91        -178.98452
  541 Torsion                 83    85    88    90          -0.18750
  542 Torsion                 83    85    88    92         179.52290
  543 Torsion                 84    83    71    94          83.53692
  544 Torsion                 84    83    85    88           0.77632
  545 Torsion                 84    83    85    89         179.97820
  546 Torsion                 84    86    90    88          -0.28415
  547 Torsion                 84    86    90    93         179.08922
  548 Torsion                 85    83    71    94         -92.89388
  549 Torsion                 85    83    84    86          -1.11636
  550 Torsion                 85    83    84    87        -179.93650
  551 Torsion                 85    88    90    86          -0.05680
  552 Torsion                 85    88    90    93        -179.42849
  553 Torsion                 86    90    88    92        -179.76534
  554 Torsion                 87    84    86    90         179.67520
  555 Torsion                 87    84    86    91          -0.17584
  556 Torsion                 88    90    86    91         179.56597
  557 Torsion                 89    85    88    90        -179.37571
  558 Torsion                 89    85    88    92           0.33469
  559 Torsion                 91    86    90    93          -1.06066
  560 Torsion                 92    88    90    93           0.86297


            XYZ format geometry
            -------------------
    97
 geometry
 C                     1.77825606     0.57869973    -1.55400891
 O                     1.44616056     1.28123466    -2.51672061
 Ni                    0.22481013    -0.35310439    -0.59311731
 C                    -1.34148033     0.13906510     0.29504815
 N                    -2.20564067    -0.78949614     0.76624870
 N                    -1.90839736     1.33622183     0.52260644
 C                    -3.36992542    -0.22667832     1.44935338
 C                    -1.88604091    -2.17881141     0.77602866
 C                    -3.27741622     1.24518718     1.03555804
 C                    -1.34794087     2.58288619     0.10809655
 H                    -4.29080175    -0.70830625     1.11415834
 H                    -3.28769284    -0.36410203     2.53430267
 C                    -2.35305734    -2.98621191    -0.26546762
 C                    -1.09702575    -2.69365855     1.80965391
 H                    -3.99103806     1.49720294     0.24431763
 H                    -3.42952811     1.93337024     1.86783687
 C                    -0.69667423     3.36604319     1.06419370
 C                    -1.47719912     2.99074583    -1.22336909
 C                    -1.96345718    -4.32087634    -0.28780138
 C                    -3.25648783    -2.44223631    -1.35304993
 C                    -0.73409906    -4.03503311     1.75360309
 C                    -0.65769968    -1.84028378     2.98227150
 C                    -0.12773758     4.56557241     0.65186709
 C                    -0.58388714     2.93741827     2.51365964
 C                    -0.89351105     4.19687103    -1.59307322
 C                    -2.28292213     2.19580962    -2.23212325
 C                    -1.15128698    -4.83958175     0.70631608
 H                    -2.29989577    -4.96241037    -1.09314276
 C                    -4.58322175    -3.20312085    -1.39252812
 C                    -2.55950906    -2.46693312    -2.71369116
 H                    -3.47415033    -1.39877869    -1.11691605
 H                    -0.11798229    -4.45442182     2.54020165
 C                     0.86477146    -1.76449246     3.08643290
 C                    -1.27845831    -2.36635094     4.27841144
 H                    -1.01872986    -0.82369368     2.81710094
 C                    -0.21700481     4.97393042    -0.66759687
 H                     0.40097681     5.18122260     1.37009381
 C                    -1.19886225     3.97762278     3.45205629
 C                     0.87423243     2.66201462     2.87493207
 H                    -1.13724938     2.00322273     2.63540942
 H                    -0.96594106     4.53062063    -2.62071173
 C                    -1.53992780     1.99609000    -3.55239979
 C                    -3.63031566     2.88467088    -2.47613794
 H                    -2.47262011     1.20673204    -1.80901495
 H                    -0.85260295    -5.87900512     0.67151776
 H                    -5.07253625    -3.19555823    -0.41679211
 H                    -4.43255479    -4.24533058    -1.68074094
 H                    -5.26024011    -2.75168384    -2.11968627
 H                    -1.65069596    -1.86265994    -2.68873620
 H                    -3.21840865    -2.07353170    -3.49081382
 H                    -2.28335292    -3.48669086    -2.99283030
 H                     1.28631602    -1.32006456     2.18305185
 H                     1.30040081    -2.75775589     3.21812709
 H                     1.16025730    -1.15361504     3.94242459
 H                    -2.36503458    -2.43483343     4.19754089
 H                    -1.03409461    -1.71308435     5.11772342
 H                    -0.90106713    -3.36463245     4.50905512
 H                     0.23984871     5.90587143    -0.97713183
 H                    -2.24441089     4.17178088     3.20448940
 H                    -0.66194617     4.92627587     3.38876183
 H                    -1.14801132     3.63604541     4.48802147
 H                     1.30415741     1.91210174     2.21074422
 H                     0.96027763     2.30682920     3.90456698
 H                     1.47347236     3.57062161     2.78098094
 H                    -0.54736799     1.58097039    -3.38400232
 H                    -1.42285351     2.94357077    -4.08402004
 H                    -2.10980773     1.32789848    -4.20264124
 H                    -4.17627344     3.05536126    -1.54572724
 H                    -4.25593518     2.28638487    -3.14258100
 H                    -3.47317833     3.85833454    -2.94612358
 N                     1.70959001    -0.87057716    -1.70221807
 C                     4.11243679     2.57281336     1.46919008
 C                     3.57948430     3.24267390     0.37726363
 H                     4.26860448     0.68586427     2.47406931
 C                     3.86841903     1.21496467     1.61819830
 C                     2.83356434     2.55676617    -0.56724822
 C                     2.59176919     1.18723631    -0.43531372
 C                     3.10446430     0.52803660     0.68553022
 H                     2.42203371     3.06510332    -1.42872064
 H                     2.91697674    -0.52282143     0.84564502
 H                     4.70087707     3.10725498     2.20474107
 H                     3.75095303     4.30523118     0.25296030
 C                     2.74146964    -1.74409533    -1.20157311
 C                     4.06095988    -1.53257434    -1.57597850
 C                     2.40039166    -2.83171052    -0.41099347
 C                     5.04767404    -2.40162651    -1.13744735
 H                     4.31279708    -0.67798002    -2.19305996
 C                     3.39276414    -3.70206652     0.01879989
 H                     1.36265037    -2.98071589    -0.12774967
 C                     4.71682072    -3.48998125    -0.34175491
 H                     6.07753609    -2.22513984    -1.41709682
 H                     3.12792792    -4.54615750     0.64193609
 H                     5.48821593    -4.17489545    -0.01335807
 C                     1.28185198    -1.31667157    -3.04535245
 H                     2.11009752    -1.22279440    -3.75229230
 H                     0.98024980    -2.36078396    -2.97217438
 H                     0.45345439    -0.70515827    -3.38645805

 ==============================================================================
                                internuclear distances
 ------------------------------------------------------------------------------
       center one      |      center two      | atomic units |  angstroms
 ------------------------------------------------------------------------------
    2 O                |   1 C                |     2.33796  |     1.23720
    3 Ni               |   1 C                |     3.87498  |     2.05055
    4 C                |   3 Ni               |     3.52743  |     1.86664
    5 N                |   4 C                |     2.55709  |     1.35316
    6 N                |   4 C                |     2.53981  |     1.34401
    7 C                |   5 N                |     2.76376  |     1.46252
    8 C                |   5 N                |     2.69406  |     1.42564
    9 C                |   6 N                |     2.76806  |     1.46479
    9 C                |   7 C                |     2.89454  |     1.53172
   10 C                |   6 N                |     2.69914  |     1.42832
   11 H                |   7 C                |     2.06347  |     1.09194
   12 H                |   7 C                |     2.07247  |     1.09671
   13 C                |   8 C                |     2.64205  |     1.39811
   14 C                |   8 C                |     2.64291  |     1.39857
   15 H                |   9 C                |     2.06908  |     1.09491
   16 H                |   9 C                |     2.06095  |     1.09061
   17 C                |  10 C                |     2.63994  |     1.39700
   18 C                |  10 C                |     2.64282  |     1.39852
   19 C                |  13 C                |     2.62775  |     1.39055
   20 C                |  13 C                |     2.86275  |     1.51490
   21 C                |  14 C                |     2.62811  |     1.39073
   22 C                |  14 C                |     2.86360  |     1.51535
   23 C                |  17 C                |     2.62704  |     1.39017
   24 C                |  17 C                |     2.86429  |     1.51571
   25 C                |  18 C                |     2.62673  |     1.39000
   26 C                |  18 C                |     2.86510  |     1.51615
   27 C                |  19 C                |     2.61640  |     1.38454
   27 C                |  21 C                |     2.61722  |     1.38497
   28 H                |  19 C                |     2.04696  |     1.08320
   29 C                |  20 C                |     2.89117  |     1.52994
   30 C                |  20 C                |     2.88932  |     1.52896
   31 H                |  20 C                |     2.06313  |     1.09176
   32 H                |  21 C                |     2.04774  |     1.08362
   33 C                |  22 C                |     2.88733  |     1.52791
   34 C                |  22 C                |     2.89200  |     1.53038
   35 H                |  22 C                |     2.06238  |     1.09137
   36 C                |  23 C                |     2.61555  |     1.38409
   36 C                |  25 C                |     2.61711  |     1.38491
   37 H                |  23 C                |     2.04790  |     1.08370
   38 C                |  24 C                |     2.89122  |     1.52997
   39 C                |  24 C                |     2.88607  |     1.52725
   40 H                |  24 C                |     2.06470  |     1.09259
   41 H                |  25 C                |     2.04639  |     1.08290
   42 C                |  26 C                |     2.88767  |     1.52809
   43 C                |  26 C                |     2.89661  |     1.53282
   44 H                |  26 C                |     2.06429  |     1.09237
   45 H                |  27 C                |     2.04477  |     1.08205
   46 H                |  29 C                |     2.06279  |     1.09158
   47 H                |  29 C                |     2.06315  |     1.09177
   48 H                |  29 C                |     2.06223  |     1.09129
   49 H                |  30 C                |     2.06293  |     1.09165
   50 H                |  30 C                |     2.06390  |     1.09217
   51 H                |  30 C                |     2.06498  |     1.09274
   52 H                |  33 C                |     2.06258  |     1.09147
   53 H                |  33 C                |     2.06464  |     1.09256
   54 H                |  33 C                |     2.06422  |     1.09234
   55 H                |  34 C                |     2.06307  |     1.09173
   56 H                |  34 C                |     2.06224  |     1.09129
   57 H                |  34 C                |     2.06334  |     1.09187
   58 H                |  36 C                |     2.04671  |     1.08307
   59 H                |  38 C                |     2.06332  |     1.09186
   60 H                |  38 C                |     2.06338  |     1.09189
   61 H                |  38 C                |     2.06360  |     1.09201
   62 H                |  39 C                |     2.06002  |     1.09011
   63 H                |  39 C                |     2.06466  |     1.09257
   64 H                |  39 C                |     2.06446  |     1.09247
   65 H                |  42 C                |     2.05786  |     1.08897
   66 H                |  42 C                |     2.06495  |     1.09272
   67 H                |  42 C                |     2.06496  |     1.09273
   68 H                |  43 C                |     2.06393  |     1.09219
   69 H                |  43 C                |     2.06447  |     1.09247
   70 H                |  43 C                |     2.06456  |     1.09252
   71 N                |   1 C                |     2.75608  |     1.45845
   71 N                |   3 Ni               |     3.63617  |     1.92418
   73 C                |  72 C                |     2.62193  |     1.38746
   75 C                |  72 C                |     2.62223  |     1.38762
   75 C                |  74 H                |     2.04633  |     1.08287
   76 C                |  73 C                |     2.61778  |     1.38527
   77 C                |   1 C                |     2.85568  |     1.51116
   77 C                |  76 C                |     2.63986  |     1.39696
   78 C                |  75 C                |     2.62214  |     1.38758
   78 C                |  77 C                |     2.64136  |     1.39775
   79 H                |  76 C                |     2.04396  |     1.08162
   80 H                |  78 C                |     2.03976  |     1.07939
   81 H                |  72 C                |     2.04660  |     1.08302
   82 H                |  73 C                |     2.04744  |     1.08346
   83 C                |  71 N                |     2.72439  |     1.44168
   84 C                |  83 C                |     2.62255  |     1.38780
   85 C                |  83 C                |     2.62138  |     1.38718
   86 C                |  84 C                |     2.61928  |     1.38606
   87 H                |  84 C                |     2.04802  |     1.08376
   88 C                |  85 C                |     2.62328  |     1.38818
   89 H                |  85 C                |     2.05219  |     1.08597
   90 C                |  86 C                |     2.62332  |     1.38820
   90 C                |  88 C                |     2.62400  |     1.38856
   91 H                |  86 C                |     2.04402  |     1.08165
   92 H                |  88 C                |     2.04486  |     1.08209
   93 H                |  90 C                |     2.04580  |     1.08259
   94 C                |  71 N                |     2.79396  |     1.47850
   95 H                |  94 C                |     2.06540  |     1.09296
   96 H                |  94 C                |     2.05840  |     1.08926
   97 H                |  94 C                |     2.04976  |     1.08469
 ------------------------------------------------------------------------------
                         number of included internuclear distances:        102
 ==============================================================================



 ==============================================================================
                                 internuclear angles
 ------------------------------------------------------------------------------
        center 1       |       center 2       |       center 3       |  degrees
 ------------------------------------------------------------------------------
    2 O                |   1 C                |   3 Ni               |   114.79
    2 O                |   1 C                |  71 N                |   118.20
    2 O                |   1 C                |  77 C                |   119.46
    1 C                |  71 N                |   3 Ni               |    73.17
    3 Ni               |   1 C                |  77 C                |   104.12
   71 N                |   1 C                |  77 C                |   120.05
    1 C                |   3 Ni               |   4 C                |   137.63
    3 Ni               |  71 N                |   1 C                |    73.17
    4 C                |   3 Ni               |  71 N                |   173.05
    3 Ni               |   4 C                |   5 N                |   121.37
    3 Ni               |   4 C                |   6 N                |   132.02
    5 N                |   4 C                |   6 N                |   106.43
    4 C                |   5 N                |   7 C                |   114.01
    4 C                |   5 N                |   8 C                |   121.87
    7 C                |   5 N                |   8 C                |   123.39
    4 C                |   6 N                |   9 C                |   113.46
    4 C                |   6 N                |  10 C                |   124.25
    9 C                |   6 N                |  10 C                |   121.51
    5 N                |   7 C                |   9 C                |   101.28
    5 N                |   7 C                |  11 H                |   110.99
    5 N                |   7 C                |  12 H                |   110.74
    9 C                |   7 C                |  11 H                |   113.07
    9 C                |   7 C                |  12 H                |   112.53
   11 H                |   7 C                |  12 H                |   108.16
    5 N                |   8 C                |  13 C                |   118.87
    5 N                |   8 C                |  14 C                |   119.36
   13 C                |   8 C                |  14 C                |   121.76
    6 N                |   9 C                |   7 C                |   102.17
    6 N                |   9 C                |  15 H                |   109.99
    6 N                |   9 C                |  16 H                |   111.00
    7 C                |   9 C                |  15 H                |   112.15
    7 C                |   9 C                |  16 H                |   113.06
   15 H                |   9 C                |  16 H                |   108.38
    6 N                |  10 C                |  17 C                |   118.27
    6 N                |  10 C                |  18 C                |   119.64
   17 C                |  10 C                |  18 C                |   122.08
    8 C                |  13 C                |  19 C                |   118.21
    8 C                |  13 C                |  20 C                |   121.78
   19 C                |  13 C                |  20 C                |   120.01
    8 C                |  14 C                |  21 C                |   118.20
    8 C                |  14 C                |  22 C                |   121.88
   21 C                |  14 C                |  22 C                |   119.91
   10 C                |  17 C                |  23 C                |   118.13
   10 C                |  17 C                |  24 C                |   122.05
   23 C                |  17 C                |  24 C                |   119.81
   10 C                |  18 C                |  25 C                |   117.87
   10 C                |  18 C                |  26 C                |   121.98
   25 C                |  18 C                |  26 C                |   120.08
   13 C                |  19 C                |  27 C                |   120.82
   13 C                |  19 C                |  28 H                |   119.56
   27 C                |  19 C                |  28 H                |   119.61
   13 C                |  20 C                |  29 C                |   110.92
   13 C                |  20 C                |  30 C                |   111.18
   13 C                |  20 C                |  31 H                |   107.87
   29 C                |  20 C                |  30 C                |   111.36
   29 C                |  20 C                |  31 H                |   107.94
   30 C                |  20 C                |  31 H                |   107.39
   14 C                |  21 C                |  27 C                |   120.81
   14 C                |  21 C                |  32 H                |   119.50
   27 C                |  21 C                |  32 H                |   119.69
   14 C                |  22 C                |  33 C                |   111.69
   14 C                |  22 C                |  34 C                |   110.13
   14 C                |  22 C                |  35 H                |   108.15
   33 C                |  22 C                |  34 C                |   111.31
   33 C                |  22 C                |  35 H                |   107.08
   34 C                |  22 C                |  35 H                |   108.31
   17 C                |  23 C                |  36 C                |   120.73
   17 C                |  23 C                |  37 H                |   119.56
   36 C                |  23 C                |  37 H                |   119.71
   17 C                |  24 C                |  38 C                |   111.37
   17 C                |  24 C                |  39 C                |   110.38
   17 C                |  24 C                |  40 H                |   108.10
   38 C                |  24 C                |  39 C                |   111.18
   38 C                |  24 C                |  40 H                |   108.02
   39 C                |  24 C                |  40 H                |   107.64
   18 C                |  25 C                |  36 C                |   120.95
   18 C                |  25 C                |  41 H                |   119.46
   36 C                |  25 C                |  41 H                |   119.60
   18 C                |  26 C                |  42 C                |   112.64
   18 C                |  26 C                |  43 C                |   109.72
   18 C                |  26 C                |  44 H                |   108.02
   42 C                |  26 C                |  43 C                |   110.40
   42 C                |  26 C                |  44 H                |   107.50
   43 C                |  26 C                |  44 H                |   108.42
   19 C                |  27 C                |  21 C                |   120.13
   19 C                |  27 C                |  45 H                |   119.92
   21 C                |  27 C                |  45 H                |   119.95
   20 C                |  29 C                |  46 H                |   111.24
   20 C                |  29 C                |  47 H                |   111.22
   20 C                |  29 C                |  48 H                |   110.45
   46 H                |  29 C                |  47 H                |   107.72
   46 H                |  29 C                |  48 H                |   108.34
   47 H                |  29 C                |  48 H                |   107.73
   20 C                |  30 C                |  49 H                |   110.50
   20 C                |  30 C                |  50 H                |   110.63
   20 C                |  30 C                |  51 H                |   110.95
   49 H                |  30 C                |  50 H                |   108.61
   49 H                |  30 C                |  51 H                |   108.18
   50 H                |  30 C                |  51 H                |   107.87
   22 C                |  33 C                |  52 H                |   110.40
   22 C                |  33 C                |  53 H                |   111.13
   22 C                |  33 C                |  54 H                |   110.53
   52 H                |  33 C                |  53 H                |   108.42
   52 H                |  33 C                |  54 H                |   108.45
   53 H                |  33 C                |  54 H                |   107.82
   22 C                |  34 C                |  55 H                |   111.26
   22 C                |  34 C                |  56 H                |   110.78
   22 C                |  34 C                |  57 H                |   110.67
   55 H                |  34 C                |  56 H                |   108.50
   55 H                |  34 C                |  57 H                |   107.60
   56 H                |  34 C                |  57 H                |   107.91
   23 C                |  36 C                |  25 C                |   120.20
   23 C                |  36 C                |  58 H                |   119.94
   25 C                |  36 C                |  58 H                |   119.86
   24 C                |  38 C                |  59 H                |   111.51
   24 C                |  38 C                |  60 H                |   110.95
   24 C                |  38 C                |  61 H                |   110.52
   59 H                |  38 C                |  60 H                |   107.65
   59 H                |  38 C                |  61 H                |   108.38
   60 H                |  38 C                |  61 H                |   107.69
   24 C                |  39 C                |  62 H                |   110.88
   24 C                |  39 C                |  63 H                |   110.90
   24 C                |  39 C                |  64 H                |   110.69
   62 H                |  39 C                |  63 H                |   108.63
   62 H                |  39 C                |  64 H                |   107.66
   63 H                |  39 C                |  64 H                |   107.95
   26 C                |  42 C                |  65 H                |   111.06
   26 C                |  42 C                |  66 H                |   111.05
   26 C                |  42 C                |  67 H                |   109.91
   65 H                |  42 C                |  66 H                |   107.95
   65 H                |  42 C                |  67 H                |   109.53
   66 H                |  42 C                |  67 H                |   107.25
   26 C                |  43 C                |  68 H                |   111.96
   26 C                |  43 C                |  69 H                |   110.76
   26 C                |  43 C                |  70 H                |   110.03
   68 H                |  43 C                |  69 H                |   108.60
   68 H                |  43 C                |  70 H                |   107.40
   69 H                |  43 C                |  70 H                |   107.94
    1 C                |  71 N                |   3 Ni               |    73.17
    1 C                |  71 N                |  83 C                |   122.22
    1 C                |  71 N                |  94 C                |   113.94
    3 Ni               |  71 N                |  83 C                |   121.00
    3 Ni               |  71 N                |  94 C                |   112.43
   83 C                |  71 N                |  94 C                |   109.86
   73 C                |  72 C                |  75 C                |   119.30
   73 C                |  72 C                |  81 H                |   120.33
   75 C                |  72 C                |  81 H                |   120.36
   72 C                |  73 C                |  76 C                |   120.29
   72 C                |  73 C                |  82 H                |   120.20
   76 C                |  73 C                |  82 H                |   119.51
   72 C                |  75 C                |  74 H                |   119.87
   72 C                |  75 C                |  78 C                |   120.60
   74 H                |  75 C                |  78 C                |   119.53
   73 C                |  76 C                |  77 C                |   120.95
   73 C                |  76 C                |  79 H                |   121.01
   77 C                |  76 C                |  79 H                |   118.04
    1 C                |  77 C                |  76 C                |   114.71
    1 C                |  77 C                |  78 C                |   126.95
   76 C                |  77 C                |  78 C                |   118.33
   75 C                |  78 C                |  77 C                |   120.50
   75 C                |  78 C                |  80 H                |   118.55
   77 C                |  78 C                |  80 H                |   120.96
   71 N                |  83 C                |  84 C                |   119.64
   71 N                |  83 C                |  85 C                |   119.80
   84 C                |  83 C                |  85 C                |   120.47
   83 C                |  84 C                |  86 C                |   119.73
   83 C                |  84 C                |  87 H                |   119.65
   86 C                |  84 C                |  87 H                |   120.61
   83 C                |  85 C                |  88 C                |   119.49
   83 C                |  85 C                |  89 H                |   119.42
   88 C                |  85 C                |  89 H                |   121.09
   84 C                |  86 C                |  90 C                |   120.22
   84 C                |  86 C                |  91 H                |   119.58
   90 C                |  86 C                |  91 H                |   120.20
   85 C                |  88 C                |  90 C                |   120.37
   85 C                |  88 C                |  92 H                |   119.50
   90 C                |  88 C                |  92 H                |   120.14
   86 C                |  90 C                |  88 C                |   119.73
   86 C                |  90 C                |  93 H                |   120.00
   88 C                |  90 C                |  93 H                |   120.27
   71 N                |  94 C                |  95 H                |   110.03
   71 N                |  94 C                |  96 H                |   107.96
   71 N                |  94 C                |  97 H                |   109.67
   95 H                |  94 C                |  96 H                |   109.61
   95 H                |  94 C                |  97 H                |   109.08
   96 H                |  94 C                |  97 H                |   110.49
 ------------------------------------------------------------------------------
                            number of included internuclear angles:        186
 ==============================================================================





 Summary of "ao basis" -> "" (cartesian)
 ------------------------------------------------------------------------------
       Tag                 Description            Shells   Functions and Types
 ---------------- ------------------------------  ------  ---------------------
 Ni                         LANL2TZ                 13       38   5s5p3d
 *                        Ahlrichs_VDZ                on all atoms 


                 ECP       "ecp basis" -> "" (cartesian)
                -----
  Ni (Nickel) Replaces    10 electrons
  ------------------------------------
             Channel    R-exponent     Exponent     Coefficients
         ------------ ---------------------------------------------------------
  1 U L       Both         1.00      469.932433     -10.000000
  1 U L       Both         2.00       85.423641     -69.408481
  1 U L       Both         2.00       21.267498     -12.095102

  2 U-s       Both         0.00      162.168610       3.000000
  2 U-s       Both         1.00      176.533323      22.025362
  2 U-s       Both         2.00       68.956201     443.018109
  2 U-s       Both         2.00       13.579284     145.569641

  3 U-p       Both         0.00       69.018151       5.000000
  3 U-p       Both         1.00      275.595560       4.988282
  3 U-p       Both         2.00       47.131545     256.694585
  3 U-p       Both         2.00       12.987408      78.475445


                                 NWChem DFT Module
                                 -----------------


                          Ni complex single-point energy


                      Basis "ao basis" -> "ao basis" (cartesian)
                      -----
  Ni (Nickel)
  -----------
            Exponent  Coefficients 
       -------------- ---------------------------------------------------------
  1 S  7.62000000E+00  1.000000

  2 S  2.29400000E+00  1.000000

  3 S  8.76000000E-01  1.000000

  4 S  1.15300000E-01  1.000000

  5 S  3.96000000E-02  1.000000

  6 P  2.36600000E+01  1.000000

  7 P  2.89300000E+00  1.000000

  8 P  9.43500000E-01  1.000000

  9 P  8.40000000E-02  1.000000

 10 P  2.40000000E-02  1.000000

 11 D  4.27200000E+01  0.037270
 11 D  1.17600000E+01  0.195610
 11 D  3.81700000E+00  0.456127

 12 D  1.16900000E+00  1.000000

 13 D  2.83600000E-01  1.000000

 14 S  7.10748032E+04  0.001426
 14 S  1.06720209E+04  0.010928
 14 S  2.42813890E+03  0.054213
 14 S  6.85535951E+02  0.188748
 14 S  2.23100729E+02  0.383246
 14 S  7.68420140E+01  0.295506

 15 S  1.48711220E+02 -0.110144
 15 S  1.74591550E+01  0.645214
 15 S  7.16252807E+00  0.447978

 16 S  1.25561371E+01 -0.226454
 16 S  2.07357405E+00  0.723210
 16 S  8.53826406E-01  0.448680

 17 S  1.05367663E-01  1.000000

 18 S  3.81340877E-02  1.000000

 19 P  9.16736087E+02  0.009344
 19 P  2.16061399E+02  0.069737
 19 P  6.83839148E+01  0.270735
 19 P  2.45938440E+01  0.530783
 19 P  9.13929602E+00  0.344102

 20 P  4.71933717E+00  0.340761
 20 P  1.81618492E+00  0.565802
 20 P  6.78407507E-01  0.236167

 21 D  4.70938321E+01  0.028982
 21 D  1.31464640E+01  0.154950
 21 D  4.41705489E+00  0.376331
 21 D  1.47715651E+00  0.473651

 22 D  4.37359218E-01  1.000000

  C (Carbon)
  ----------
            Exponent  Coefficients 
       -------------- ---------------------------------------------------------
  1 S  1.23840169E+03  0.005457
  1 S  1.86290050E+02  0.040638
  1 S  4.22511763E+01  0.180256
  1 S  1.16765579E+01  0.463151
  1 S  3.59305065E+00  0.440872

  2 S  4.02451474E-01  1.000000

  3 S  1.30901827E-01  1.000000

  4 P  9.46809706E+00  0.038388
  4 P  2.01035451E+00  0.211170
  4 P  5.47710047E-01  0.513282

  5 P  1.52686138E-01  1.000000

  O (Oxygen)
  ----------
            Exponent  Coefficients 
       -------------- ---------------------------------------------------------
  1 S  2.26617678E+03 -0.005343
  1 S  3.40870102E+02 -0.039890
  1 S  7.73631352E+01 -0.178539
  1 S  2.14796449E+01 -0.464277
  1 S  6.65894331E+00 -0.443097

  2 S  8.09759757E-01  1.000000

  3 S  2.55307722E-01  1.000000

  4 P  1.77215043E+01  0.043395
  4 P  3.86355054E+00  0.230941
  4 P  1.04809209E+00  0.513753

  5 P  2.76415444E-01  1.000000

  N (Nitrogen)
  ------------
            Exponent  Coefficients 
       -------------- ---------------------------------------------------------
  1 S  1.71284159E+03 -0.005393
  1 S  2.57648127E+02 -0.040222
  1 S  5.84582459E+01 -0.179311
  1 S  1.61983679E+01 -0.463763
  1 S  5.00526008E+00 -0.441714

  2 S  5.87318566E-01  1.000000

  3 S  1.87645923E-01  1.000000

  4 P  1.35714702E+01 -0.040072
  4 P  2.92573729E+00 -0.218070
  4 P  7.99277508E-01 -0.512945

  5 P  2.19543480E-01  1.000000

  H (Hydrogen)
  ------------
            Exponent  Coefficients 
       -------------- ---------------------------------------------------------
  1 S  1.30107010E+01  0.019682
  1 S  1.96225720E+00  0.137965
  1 S  4.44537960E-01  0.478319

  2 S  1.21949620E-01  1.000000



 Summary of "ao basis" -> "ao basis" (cartesian)
 ------------------------------------------------------------------------------
       Tag                 Description            Shells   Functions and Types
 ---------------- ------------------------------  ------  ---------------------
 Ni                     modified:LANL2TZ            22       61   10s7p5d
 C                        Ahlrichs VDZ               5        9   3s2p
 O                        Ahlrichs VDZ               5        9   3s2p
 N                        Ahlrichs VDZ               5        9   3s2p
 H                        Ahlrichs VDZ               2        2   2s




 Summary of "ao basis" -> "ao basis" (cartesian)
 ------------------------------------------------------------------------------
       Tag                 Description            Shells   Functions and Types
 ---------------- ------------------------------  ------  ---------------------
 Ni                     modified:LANL2TZ            22       61   10s7p5d
 C                        Ahlrichs VDZ               5        9   3s2p
 O                        Ahlrichs VDZ               5        9   3s2p
 N                        Ahlrichs VDZ               5        9   3s2p
 H                        Ahlrichs VDZ               2        2   2s


  Caching 1-el integrals 

            General Information
            -------------------
          SCF calculation type: DFT
          Wavefunction type:  closed shell.
          No. of atoms     :    97
          No. of electrons :   344
           Alpha electrons :   172
            Beta electrons :   172
          Charge           :     0
          Spin multiplicity:     1
          Use of symmetry is: off; symmetry adaption is: off
          Maximum number of iterations: 100
          AO basis - number of functions:   568
                     number of shells:   349
          Convergence on energy requested:  1.00D-06
          Convergence on density requested:  1.00D-05
          Convergence on gradient requested:  5.00D-04

              XC Information
              --------------
                         B3LYP Method XC Potential
                     Hartree-Fock (Exact) Exchange  0.200          
                        Slater Exchange Functional  0.800 local    
                    Becke 1988 Exchange Functional  0.720 non-local
              Lee-Yang-Parr Correlation Functional  0.810          
                  VWN I RPA Correlation Functional  0.190 local    

             Grid Information
             ----------------
          Grid used for XC integration:  medium    
          Radial quadrature: Mura-Knowles        
          Angular quadrature: Lebedev. 
          Tag              B.-S. Rad. Rad. Pts. Rad. Cut. Ang. Pts.
          ---              ---------- --------- --------- ---------
          C                   0.70       49          17.0       434
          O                   0.60       49          14.0       434
          Ni                  1.35      112          14.0       590
          N                   0.65       49          15.0       434
          H                   0.35       45          19.0       434
          Grid pruning is: on 
          Number of quadrature shells:  4612
          Spatial weights used:  Erf1

          Convergence Information
          -----------------------
          Convergence aids based upon iterative change in 
          total energy or number of iterations. 
          Levelshifting, if invoked, occurs when the 
          HOMO/LUMO gap drops below (HL_TOL):  1.00D-02
          DIIS, if invoked, will attempt to extrapolate 
          using up to (NFOCK): 10 stored Fock matrices.

                    Damping( 0%)  Levelshifting(0.5)       DIIS
                  --------------- ------------------- ---------------
          dE  on:    start            ASAP                start   
          dE off:    2 iters        100 iters           100 iters 


      Screening Tolerance Information
      -------------------------------
          Density screening/tol_rho:  1.00D-10
          AO Gaussian exp screening on grid/accAOfunc:  14
          CD Gaussian exp screening on grid/accCDfunc:  20
          XC Gaussian exp screening on grid/accXCfunc:  20
          Schwarz screening/accCoul:  1.00D-08


 WARNING : Found     2 linear dependencies 
 S eigenvalue threshold:     1.00000E-05
 Smallest S eigenvalue :     4.69540E-07
 Largest  S eigenvalue :     2.98729E-06


 !! The overlap matrix has   2 vectors deemed linearly dependent with
    eigenvalues:
 4.70D-07 2.99D-06


      Superposition of Atomic Density Guess
      -------------------------------------

 Sum of atomic energies:       -1991.96317352

      Non-variational initial energy
      ------------------------------

 Total energy =   -2008.881670
 1-e energy   =  -16292.851902
 2-e energy   =    7480.676986
 HOMO         =      -0.236637
 LUMO         =      -0.078235

   Time after variat. SCF:     43.0
   Time prior to 1st pass:     43.0

 Grid_pts file          = ./ni_singlepoint.gridpts.00
 Record size in doubles =  12289        No. of grid_pts per rec  =   3070
 Max. records in memory =     83        Max. recs in file   =  84437568

 Grid integrated density:     343.893481626462
 Requested integration accuracy:   0.10E-05

           Memory utilization after 1st SCF pass: 
           Heap Space remaining (MW):      305.01           305007404
          Stack Space remaining (MW):      509.71           509711396

   convergence    iter        energy       DeltaE   RMS-Dens  Diis-err    time
 ---------------- ----- ----------------- --------- --------- ---------  ------
 d= 0,ls=0.0,diis     1  -1992.4044294430 -8.80D+03  4.29D-01  3.03D+01    96.0
 d= 0,ls=0.5,diis     2  -1964.6132236407  2.78D+01  4.24D-02  1.58D+02   159.7
 d= 0,ls=0.5,diis     3  -1994.5930620448 -3.00D+01  7.76D-02  6.20D+01   223.5
 d= 0,ls=0.5,diis     4  -1995.6428738724 -1.05D+00  1.46D-01  4.43D+01   287.0
 d= 0,ls=0.5,diis     5  -1996.6621875151 -1.02D+00  7.77D-02  4.26D+01   344.1
