97
Properties=species:S:1:pos:R:3:forces:R:3 spin=1 charge=0 energy=-90905.78847235859 pbc="F F F"
C       -0.34923708       1.57987762      -1.44097960       0.00004038      -0.00421793       0.00240811
O       -1.11419130       1.45321715      -2.38310186      -0.00410260      -0.00658883       0.00588419
Ni       0.48531504       0.06488248      -0.76734714       0.00193160      -0.00452349      -0.00211635
C       -0.50558744      -1.11696780       0.30144265       0.00157298      -0.00223485      -0.00108651
N        0.17585834      -2.10098070       0.91737417       0.00025687      -0.00104906       0.00211028
N       -1.80349797      -1.33587676       0.52641583       0.00115835      -0.00070632      -0.00220822
C       -0.66469617      -3.03231042       1.66830586      -0.00109877       0.00131522       0.00351912
C        1.60218805      -2.13676780       0.92788603       0.00024635      -0.00145339       0.00208395
C       -2.06871061      -2.59027190       1.23945183      -0.00054337       0.00226144       0.00232577
C       -2.87189586      -0.52155468       0.03680525       0.00211963       0.00020278      -0.00292849
H       -0.44249531      -4.06418370       1.39203646      -0.00243892       0.00051815       0.00541910
H       -0.49837585      -2.92231461       2.74374928      -0.00139611       0.00293058       0.00338249
C        2.26769260      -2.81026462      -0.10285468       0.00009379       0.00011680       0.00089860
C        2.29335255      -1.48873558       1.95881184       0.00039092      -0.00185399       0.00227014
H       -2.54146198      -3.30834534       0.56447697      -0.00214721       0.00069386       0.00519263
H       -2.73970521      -2.42084509       2.08188258       0.00011574       0.00653856       0.00199335
C       -3.45470646       0.39807569       0.91309192       0.00298437       0.00119752      -0.00337698
C       -3.31564044      -0.68672355      -1.27858414       0.00173875      -0.00017551      -0.00276169
C        3.65898050      -2.79533544      -0.10073762       0.00007451       0.00048459       0.00054751
C        1.51627751      -3.56057177      -1.18479060       0.00007264       0.00155575      -0.00020383
C        3.68296010      -1.51168920       1.92867850       0.00038983      -0.00185505       0.00205618
C        1.56766715      -0.78233114       3.08692285       0.00038119      -0.00081083       0.00167872
C       -4.49004214       1.19091678       0.43161567       0.00303978       0.00126813      -0.00343614
C       -3.00436105       0.53493777       2.35507288       0.00290789       0.00126277      -0.00333497
C       -4.35216663       0.12809867      -1.71734615       0.00212957       0.00020186      -0.00294879
C       -2.74035762      -1.75220412      -2.19183526       0.00012918      -0.00176629      -0.00191107
C        4.36108009      -2.15046671       0.90288347       0.00022411      -0.00081795       0.00126479
H        4.19957280      -3.29574675      -0.89474291       0.00001180       0.00179319      -0.00037260
C        1.78815070      -5.06376762      -1.08235854       0.00103529       0.00153862      -0.00305115
C        1.85093848      -3.02997741      -2.57876646      -0.00093990       0.00388755       0.00038776
H        0.44879366      -3.40011617      -1.02233626       0.00004812       0.00059062       0.00048954
H        4.24294887      -1.01267644       2.71035454       0.00053622      -0.00237458       0.00228296
C        1.98604310       0.68338935       3.19836538       0.00132154      -0.00098727       0.00091243
C        1.78735315      -1.51807661       4.41101901      -0.00120713       0.00041469       0.00260316
H        0.49961706      -0.79399907       2.86055295       0.00052217      -0.00007956       0.00097205
C       -4.93062821       1.06198342      -0.87425212       0.00261990       0.00073373      -0.00321498
H       -4.95267607       1.92100901       1.08488108       0.00323600       0.00147038      -0.00353749
C       -4.12591728       0.13907229       3.31941695       0.00271851       0.00023850      -0.00393027
C       -2.49888838       1.94552958       2.65270628       0.00214630       0.00131186      -0.00222024
H       -2.16670950      -0.14848151       2.51287005       0.00327877       0.00174167      -0.00335154
H       -4.70743084       0.03651151      -2.73572469       0.00185638      -0.00006735      -0.00282107
C       -2.41649527      -1.22549021      -3.58959596      -0.00389068      -0.00561868      -0.00428358
C       -3.70332357      -2.94131317      -2.28186814       0.00017029      -0.00226583       0.00357778
H       -1.80334169      -2.09969835      -1.75049806       0.00144799      -0.00022123      -0.00349604
H        5.44357692      -2.14525240       0.88607657       0.00024516      -0.00076260       0.00106869
H        1.53585256      -5.44648253      -0.09143020       0.00033088      -0.00065881      -0.00409320
H        2.84207462      -5.28428905      -1.26368466       0.00134456       0.00266390      -0.00255891
H        1.19938267      -5.60987414      -1.82142792       0.00209655       0.00274818      -0.00475972
H        1.63389036      -1.96242087      -2.65307867      -0.00206278       0.00379092       0.00171559
H        1.26237367      -3.55269996      -3.33507838      -0.00081983       0.00430393      -0.00000190
H        2.90638719      -3.17859261      -2.81673326      -0.00092339       0.00520773      -0.00035643
H        1.82184716       1.20561562       2.25637583       0.00309548      -0.00165267       0.00023981
H        3.04193377       0.77817016       3.46051594       0.00096572      -0.00149392       0.00252517
H        1.40348800       1.18563109       3.97302264       0.00045244       0.00006148      -0.00040205
H        1.48151553      -2.56398014       4.34372455      -0.00346221       0.00098163       0.00415290
H        1.21922733      -1.04345613       5.21293789      -0.00029424       0.00282330       0.00182198
H        2.84272569      -1.50096812       4.69144428      -0.00121471      -0.00135295       0.00274285
H       -5.73284927       1.69216149      -1.23739545       0.00249207       0.00061921      -0.00323280
H       -4.48794922      -0.87251324       3.12412686       0.00359487      -0.00000828      -0.00428754
H       -4.97697386       0.81643071       3.22405433       0.00222643      -0.00047231      -0.00449602
H       -3.77671394       0.18653147       4.35289258       0.00200584       0.00043400      -0.00369282
H       -1.69122894       2.22296614       1.97630146       0.00270686       0.00200418      -0.00125093
H       -2.13013169       2.00916065       3.67917945       0.00123359       0.00067147      -0.00184647
H       -3.29724633       2.68192530       2.53932814       0.00203773       0.00117052      -0.00235029
H       -1.79661230      -0.33310196      -3.52859380      -0.00374078      -0.00542461      -0.00862600
H       -3.32682671      -0.97589754      -4.13949397      -0.00539707      -0.00754377      -0.00267323
H       -1.89311666      -1.99478213      -4.16204349      -0.00543194      -0.00733233      -0.00340655
H       -3.94414811      -3.35167655      -1.29914323       0.00331353      -0.00025613       0.00517482
H       -3.27306574      -3.73757903      -2.89287002      -0.00171065      -0.00347663       0.00383325
H       -4.64232744      -2.63125543      -2.74621939      -0.00138271      -0.00327658       0.00600363
N        1.39047221       1.20383657      -1.93138691      -0.00301717      -0.00024290      -0.00265351
C       -0.94061954       4.93452747       1.17493823       0.00823052       0.00111736      -0.00239250
C       -1.84096429       4.64064262       0.15979650       0.00470337      -0.00177664       0.00157977
H        0.89902157       4.36990509       2.12676522       0.01098997       0.00293565      -0.00653583
C        0.19281044       4.14870132       1.33592618       0.00813443       0.00080044      -0.00338499
C       -1.60868585       3.56844012      -0.68795959       0.00164010      -0.00422517       0.00386922
C       -0.47524501       2.77367224      -0.52800914       0.00206027      -0.00388998       0.00214397
C        0.41970753       3.07006755       0.49368097       0.00493488      -0.00186932      -0.00085506
H       -2.30104938       3.31966457      -1.48131642      -0.00088236      -0.00648866       0.00682412
H        1.29944004       2.45921961       0.63063911       0.00495234      -0.00179658      -0.00125566
H       -1.12423924       5.76843643       1.84088020       0.01114129       0.00360773      -0.00476665
H       -2.72894802       5.24706282       0.02887110       0.00443600      -0.00195036       0.00265663
C        2.54673112       1.90470137      -1.51189253      -0.00330269      -0.00033118      -0.00132802
C        2.92327899       3.10358578      -2.11897639      -0.00487946       0.00262509       0.00356595
C        3.35239526       1.39246139      -0.49530613      -0.00346576      -0.00266876      -0.00237372
C        4.07488370       3.76462844      -1.72213926      -0.00671999       0.00339063       0.00776447
H        2.30129823       3.51811194      -2.90232390      -0.00490416       0.00491522       0.00479223
C        4.49610030       2.06388662      -0.08779002      -0.00558966      -0.00184146       0.00204087
H        3.07619543       0.44997372      -0.03210932      -0.00282466      -0.00451333      -0.00567926
C        4.86718669       3.25136842      -0.70317917      -0.00719663       0.00124968       0.00706578
H        4.35440988       4.69015293      -2.21012012      -0.00793438       0.00597602       0.01194745
H        5.10832546       1.64646433       0.70300639      -0.00636903      -0.00332286       0.00185413
H        5.76718956       3.76933208      -0.39808780      -0.00882995       0.00208506       0.01053594
C        1.39346488       0.88146141      -3.35558249      -0.00499315       0.00361888      -0.00347478
H        1.32590860       1.77299939      -3.98590657      -0.00264442       0.00568963      -0.00080816
H        2.31054344       0.34348780      -3.61355524      -0.00710272       0.00127427      -0.00593201
H        0.53683968       0.25449508      -3.58886286      -0.00745168       0.00726175      -0.00411254