173
 energy: -270.424694652862 gnorm: 0.000305932890 xtb: 6.6.1 (8d0f1dd)
N           -2.35735391734664       -0.43836501520639        3.08789221158247
C           -3.33688991463144        0.55805889253817        3.45671100510353
C           -4.46713379750397        0.66933031624405        2.43383896738346
O           -5.14985250175595        1.67945802377432        2.36060089898147
N           -4.59538454934799       -0.38426290810010        1.61112934519698
C           -5.50029294419564       -0.47059169927472        0.46652788052404
C           -1.88947840716439       -1.34940714992702        3.97951006758406
C           -0.59648015333304       -2.02381675736203        3.49128543553194
O           -2.44753461057091       -1.62151671487158        5.01858040688041
N            0.55916467044515       -1.22575259286855        3.91790124220581
C           -0.39878042709656       -3.38745911897395        4.15096127359473
C            1.40550003758079       -1.97994773244887        4.82718641207256
C            0.90438700651416       -0.09764506961044        3.30072075204526
C            0.48396785506228       -3.07338638850418        5.35488726418146
C            2.20062246356452        0.57495615947722        3.72800438912396
O            0.16389625004769        0.46602220787665        2.48742890581698
N            2.67056904523587        1.37983007031293        2.62281313627425
C            1.95955454748998        1.47057580191267        4.95156618695068
C            3.96316153457684        1.71169573988121        2.50177348344600
C            4.27064395677006        2.52509705038978        1.22711284197917
O            4.81182048304917        1.43458689359963        3.32504722931351
N            3.41441419017213        3.70362018331870        1.15427973203341
C            5.68263509900210        3.09455410721852        1.25955765678333
C            4.14205370432393        4.90324884964507        1.53800101487151
C            2.24787534787815        3.65609112998792        0.51191836708446
C            5.48548742463868        4.38488490061679        2.04947932319668
C            1.40996770203482        4.93335452714752        0.46323541036750
O            1.79309703122054        2.60942115553305        0.04865637683666
N            0.92493321967598        5.11643618463652       -0.90150771632098
C            0.13247285573617        4.80516864074394        1.29148117194415
C           -0.50713298904022        5.33716938042164       -0.94026874202919
C            1.84615473128668        5.01904985443970       -1.87500536497354
C           -0.85021822856768        5.67093953190061        0.51206743983359
C            1.43211354438396        4.81385349555303       -3.33574667932288
O            3.02978700051233        4.94986173305755       -1.57222787170029
N            1.14161184851687        3.39589762587848       -3.43236104148148
C            0.30796908231892        5.65524736420214       -3.92928191321008
C            1.94688336023529        2.55264156844576       -4.11181034676259
C            1.62119685820818        1.07318979501238       -3.90054954988430
O            2.86451024715022        2.91982945659490       -4.81157581219054
N            1.92783891663317        0.72461798071020       -2.51703287017230
C            0.18921006407514        0.71829621554353       -4.30548666905971
C            2.46985296166472       -0.47523102188203       -2.23584756652749
C            3.05893561722477       -0.62500046208376       -0.83293956637189
O            2.52614189487096       -1.38217216591776       -3.04385169050091
N            2.83356129627657       -1.97887591794250       -0.38438360446916
C            4.56424256040235       -0.34818391829089       -0.94917525327659
C            2.51777137529343       -2.29503057208320        0.87256435523481
C            2.27092875302366       -3.79232301341039        1.12298465319106
O            2.45394165250967       -1.48486214396367        1.78384333285773
N            1.33152441548968       -4.35045870280000        0.16529652757604
C            3.60738102980136       -4.56172587692913        1.18134407835521
C            1.58805346167320       -4.61727296086224       -1.12309976111240
C            4.48439743997421       -3.99415016362601        2.29472979651376
C            3.34992943096628       -6.04820292615562        1.41881012806347
C            0.32740758873560       -5.01851309166272       -1.91059947783778
O            2.68558935972549       -4.54450618187427       -1.64645463130475
N           -0.65318808001161       -3.94452987596868       -1.84031483543967
C            0.61726409219086       -5.12274937854588       -3.40211948916680
C           -0.33676295607302       -2.94501392240228       -2.83977808273053
C           -1.56926900510757       -3.93042100324881       -0.87013339119519
C            0.51798622942512       -3.67355881191828       -3.88901899625447
C           -2.67753991554732       -2.87193220560079       -0.86848442177034
O           -1.58688539500290       -4.78954072114602        0.00725614919533
N           -2.19709524174485       -1.52765841195524       -1.12077732373452
C           -3.84814569529422       -3.26108992909256       -1.78910504375790
C           -1.16690797167850       -1.05248108389671       -0.40156515395638
C           -3.47614069224301       -3.51552747639689       -3.22150879108315
C           -0.89011349355648        0.44502310474655       -0.53386316052617
O           -0.49967049968190       -1.77388039786140        0.32132967951788
C           -3.54156416997220       -2.48683783251556       -4.15548722394652
C           -3.07612546238749       -4.77987256040138       -3.63467463654134
N           -2.11033039613241        1.21443524124783       -0.43146908376200
C           -3.19464541076909       -2.71666155436355       -5.47547289354231
C           -2.73659002167836       -5.01053679313117       -4.95611038921850
C           -2.54024636721777        2.06600181655746       -1.37542728865357
C           -2.78961740321414       -3.97839349857933       -5.87758460635817
C           -3.97997263055961        2.58222254881811       -1.18496210541199
O           -1.86854120615350        2.40586021263680       -2.33344988995927
N           -4.76717433772896        1.68462642046893       -0.36520101646212
C           -3.98708399444829        3.96101052469304       -0.53939126384135
C           -4.92526667650131        0.39430891876443       -0.67075460534135
O           -4.57675749118944       -0.09399286145213       -1.73462572185321
C           -2.67711769340693        1.96140266581208        3.57963334261940
O           -1.95236465668787        2.25531486526594        2.40745046651748
C           -1.81874742117862        2.05488568451809        4.83321539714379
C           -6.94123957688233       -0.10232404866167        0.81099260098666
H           -1.67188871109351       -0.15455965392846        2.38826803717335
H           -3.76402354820043        0.26764931091000        4.42367626714476
H           -3.97028474741154       -1.16081104915025        1.77628075821546
H           -5.47426082351161       -1.50895410969006        0.12349404504326
H           -0.60250214868559       -2.07973129690930        2.39715311573666
H           -1.35331478891999       -3.81823342011553        4.44627693347575
H            0.09851952413696       -4.07209268327757        3.46523172908305
H            2.24638595410281       -2.40074917668939        4.26464620988518
H            1.79124761866360       -1.34577183572538        5.62540377852202
H            1.03405750002114       -3.93952116326234        5.71546173885056
H           -0.13417237495641       -2.68376946425055        6.16406369537957
H            2.96976557634639       -0.16822695701734        3.95121229090708
H            2.02095003793415        1.52002348804105        1.85839193017960
H            1.52189228526820        0.91217659946483        5.77502040698753
H            2.91123044438423        1.88497685249663        5.27317277359978
H            1.29283312417312        2.28790624555777        4.68522957547415
H            4.07594210782647        1.89171916754336        0.35960066151710
H            6.02871689298293        3.30686915584805        0.24864016539413
H            6.36816748854262        2.40901208177192        1.75223800926529
H            3.60261449090965        5.46202253288602        2.30724193908082
H            4.27903789503304        5.53115351239292        0.65104382470905
H            6.28535347022688        5.10470287925449        1.89318007260787
H            5.42247237253012        4.14999637188876        3.11214208010255
H            1.99841298478886        5.80603261434249        0.75889797365581
H           -0.20686593181292        3.76869076872512        1.28983997314747
H            0.27322802405821        5.13463015620350        2.31854926399251
H           -0.75610713337224        6.16163740643655       -1.60763567418354
H           -1.02437651294880        4.43029410086933       -1.26957778765257
H           -0.65419406406993        6.72688572720652        0.70587819135197
H           -1.88562024572090        5.45678860892574        0.76086572338073
H            2.34954374556803        4.96638729978501       -3.91782902544198
H            0.34777318820651        3.04330826641811       -2.91618532856763
H            0.36917414441712        5.60127138722783       -5.01373778152028
H           -0.66581669377353        5.27544081289346       -3.63317880187981
H            0.40770718778241        6.69654239582967       -3.63369028349171
H            2.30758100654817        0.49012350016563       -4.52711690185359
H            1.91590673510770        1.45134694528332       -1.81117113100248
H            0.03722705244236       -0.35152647771863       -4.18375886745009
H           -0.55198854296389        1.25576039743945       -3.72026848649121
H            0.04570233026153        0.96962236399392       -5.35324501913988
H            2.58199614268465        0.05559938860429       -0.12216198639090
H            2.95223292261851       -2.69893296419396       -1.09198775667186
H            4.74289430837493        0.63193858048780       -1.38582103111332
H            5.03255941709270       -0.40035106488471        0.03117265187860
H            5.01358014209116       -1.09847323056452       -1.59661482981461
H            1.79545539288821       -3.86441139866795        2.10595749148186
H            0.36937635044940       -4.42766802052742        0.46951073261374
H            4.11858833900616       -4.44388918400750        0.22323762129103
H            4.02424892187874       -4.16734525980940        3.26641585443150
H            4.63362557100988       -2.92462299858457        2.17261765169121
H            5.45701504439674       -4.47967364005106        2.28768892748202
H            2.79412299657384       -6.20004351893093        2.34258847265660
H            4.29518447760710       -6.57977024728412        1.49450877533740
H            2.78302934948143       -6.47788083991969        0.59756290702750
H           -0.10016760469808       -5.92576184160031       -1.47353052838830
H            1.60696708238131       -5.53984854375523       -3.57328288707564
H           -0.13144528825613       -5.75028876578854       -3.88437473416594
H           -1.24409966751536       -2.52237163796168       -3.26624660294466
H            0.24656703524893       -2.14305767611830       -2.37513114891159
H            0.06419998060231       -3.61590235174888       -4.87640188958153
H            1.50447202752873       -3.21612139100295       -3.92755386906807
H           -3.05756523280958       -2.91161517712759        0.16735460146852
H           -2.80149628808479       -0.91393048325397       -1.65564041758701
H           -4.29908155418102       -4.16195229655410       -1.36736926062683
H           -4.57772395420193       -2.44981012152063       -1.75625047746788
H           -0.44402055680230        0.64469451749643       -1.51068154244622
H           -0.17431034578387        0.72627222769268        0.24400500034067
H           -3.87158800578234       -1.50592903938920       -3.84485256821779
H           -3.03540734822533       -5.58627643877864       -2.91626683255065
H           -2.58563916799016        1.20091694991878        0.46012578079210
H           -3.24468168051214       -1.91033129316524       -6.19207863134015
H           -2.43561234936198       -5.99922702980350       -5.27082835501971
H           -2.52325326933705       -4.15893598622031       -6.90838988497254
H           -4.41145933103524        2.63029713600882       -2.19330492367224
H           -5.06374210850814        2.01573027288097        0.55053611946553
H           -5.00892722013341        4.32044620615433       -0.44372637030544
H           -3.54045796165427        3.90133867770444        0.45145720373594
H           -3.42716808540054        4.66412064221531       -1.14884941638677
H           -3.48583479012478        2.69934422389377        3.62002069813108
H           -1.10174362919701        1.77529603043625        2.44115440499817
H           -1.32361845772483        3.02255951251080        4.86675532837716
H           -2.43456325188151        1.94448609558019        5.72097244708374
H           -1.06365280797348        1.27164404455218        4.83282873517796
H           -7.55597872910441       -0.18904641399473       -0.08112425062783
H           -7.32225803732823       -0.78346660987337        1.56816475493366
H           -7.00826497418027        0.91084633052719        1.19394135661958
