173
 energy: -270.394508488506 gnorm: 0.000282037353 xtb: 6.6.1 (8d0f1dd)
N           -4.95333945358814        4.60525810667088        1.52774904558649
C           -3.55202392067600        4.44878245597888        1.24720742998827
C           -3.19614384714626        5.36075817951271        0.07019442570235
O           -4.04033197104434        5.80253780244056       -0.67890769819441
N           -1.87525152080917        5.59097609548819       -0.05191462351738
C           -1.30025346429532        6.24392936118024       -1.20454493911108
C           -5.48473207128602        4.44592270520262        2.74671556114040
C           -7.02508758110196        4.52722235904295        2.76499456634223
O           -4.83203326300900        4.21906484619836        3.74639146685125
N           -7.51708728115060        3.15203793386931        2.66866443216273
C           -7.56190493969993        5.02454600414540        4.10387229313582
C           -8.12528631221580        2.70888184352947        3.91007405692397
C           -7.38975919399763        2.47813268531771        1.52244341833233
C           -7.65815312259703        3.74394574334414        4.93016022210747
C           -7.68413664742603        0.98051457206164        1.53797203523760
O           -6.99572327458560        3.01761418268851        0.49442319841852
N           -7.77703534696801        0.57817671891759        0.15168207188744
C           -6.51379619448480        0.24745797528398        2.21547791434141
C           -7.96969462522004       -0.68713875020271       -0.24279147408863
C           -7.71331510119873       -0.93905796792989       -1.73726408980752
O           -8.34959383888676       -1.58382894098727        0.48483757259721
N           -6.80617430971588       -2.07844775499986       -1.83628207063891
C           -8.96969815401936       -1.40690536123164       -2.47244254870377
C           -7.34765076713637       -3.13732765147728       -2.66207108179412
C           -5.71116643435746       -2.10852991895995       -1.06419153294241
C           -8.42988065798224       -2.42720963872752       -3.47183641236127
C           -4.99931560384646       -3.45974439822861       -0.94313366296535
O           -5.33512310116099       -1.13340899545877       -0.43398300479056
N           -3.74737767674252       -3.25064973551616       -0.23887998803366
C           -5.82616859981519       -4.39109790134414       -0.03592760593692
C           -3.89365951153822       -3.61670636261196        1.15046818361943
C           -2.74387990422818       -2.60935666650144       -0.86582104299369
C           -4.85542925686588       -4.79986496258088        1.07456365973409
C           -1.58206453992032       -2.13826815329609        0.01801081266988
O           -2.76026246497172       -2.40151818537786       -2.06459451027486
N           -0.37779166520087       -2.00958805374678       -0.76751057375671
C           -1.95665566004590       -0.78000931207328        0.60829595680387
C            0.53678560086951       -2.98679245799625       -0.80018146235428
C            1.71038862999458       -2.71206735458788       -1.76205573891523
O            0.49021170131896       -3.99582488697170       -0.12352248334921
N            2.86128115461037       -3.44951870923871       -1.28298253405751
C            1.33921354381883       -3.14763476934554       -3.17148451343436
C            3.35496174194535       -3.22911181676843       -0.06123283969779
C            4.46732009512171       -4.19078869472825        0.35565584250751
O            3.00328909110133       -2.29059140243833        0.64039759759587
N            5.67613412759323       -3.75676737728246       -0.33412627071587
C            4.65005691702180       -4.20476093318024        1.87159387198665
C            6.77418305118001       -4.53152950255348       -0.38497898500973
C            7.93033654233957       -3.95022726548279       -1.21849772567141
O            6.84995881457277       -5.60616842314181        0.17519067263140
N            7.84207137865082       -2.51135356196113       -1.34012114584280
C            9.30276398614259       -4.40500375008849       -0.67410732101358
C            7.62063583902466       -1.91147147989054       -2.52819467927032
C            9.55799490088187       -5.85878900150782       -1.06416488853571
C           10.42535824644392       -3.51952260908280       -1.21437047460470
C            7.60994848282498       -0.38145129078895       -2.50258246178806
O            7.50776485541856       -2.51620478358778       -3.57061936089607
N            7.02711982657332        0.20768516912731       -1.30054043527662
C            9.02413965688705        0.20078911496738       -2.54017296643217
C            7.81097517184579        1.33100868588066       -0.81584236785036
C            5.82152994766741       -0.20156895452861       -0.87681250722571
C            8.82964102427299        1.58493001619571       -1.92724634156484
C            5.23049075209785        0.48272809290567        0.35283026352634
O            5.24571864418807       -1.13861731991389       -1.41455335068404
N            3.79795269734950        0.33624026561624        0.32828867334932
C            5.79898797523847       -0.18588679717130        1.62225238928538
C            2.98252245467524        1.37563474493972        0.15608063106997
C            5.15765816200634        0.41863919490928        2.83907183132656
C            1.49035446101975        1.02974969109643        0.21287807332393
O            3.34753792136313        2.52525640477526       -0.02769336079501
C            3.95868721275205       -0.09099935251678        3.32222985070136
C            5.71913142901680        1.52888396794645        3.45487979209626
N            0.78023793477193        1.99744283315709       -0.59027024109852
C            3.33659578609084        0.50137065646747        4.40692007563685
C            5.09824974251429        2.11808682154031        4.54179151119159
C            0.19071003932461        1.68640978476356       -1.76208854616228
C            3.90401301307334        1.60613138134069        5.01895459237707
C           -0.11001245114425        2.89658196858166       -2.63952699366730
O           -0.08130254323137        0.54817512416605       -2.09769137107112
N           -0.58177331706560        4.00083682480840       -1.81891724170778
C            1.19182723593801        3.23836477449401       -3.37352644466685
C           -0.75037439529775        5.26378514907915       -2.26216995706527
O           -0.45272648065991        5.66048755309518       -3.36708846933612
C           -3.21374964355701        2.97754200450703        0.88417536102906
O           -1.80017798415717        2.89904631598922        0.73790916584618
C           -3.93496129761547        2.51463343889011       -0.37627275730565
C           -0.17131747816226        7.18296900281054       -0.78687963978638
H           -5.53697901738572        4.74327281269020        0.71110408362012
H           -2.98294943641765        4.71834029916973        2.14358199066240
H           -1.24650224459434        5.17527943969392        0.61874904810209
H           -2.10438448160892        6.81192093915753       -1.68461379018501
H           -7.37692401868914        5.11055784823016        1.90957649628156
H           -6.88899746869059        5.75100836986448        4.55327442445503
H           -8.54482644534992        5.47755122641100        3.97144868292562
H           -9.21746886133502        2.72806642987335        3.80445350644822
H           -7.81868918459475        1.69846138663257        4.17718225376591
H           -8.34097174358455        3.83241167200468        5.77195528627841
H           -6.66557732447398        3.48338817881846        5.29546027548195
H           -8.62823077074349        0.76066978178757        2.04683460869467
H           -7.34379766838410        1.25260065322374       -0.47131631127077
H           -6.81126061624409       -0.77515599799147        2.43092664947368
H           -5.67648637540362        0.21823097713769        1.52186484036933
H           -6.19931807741648        0.73709843205260        3.13280978585609
H           -7.25870943394370       -0.05920702417327       -2.20598881475272
H           -9.49919536575182       -0.58288056447307       -2.94482400478614
H           -9.63392511731244       -1.89762821554213       -1.75875632928489
H           -7.78956378925910       -3.92370276977321       -2.03985592050920
H           -6.56997421313794       -3.57338879501322       -3.29162073784570
H           -7.98357480091416       -1.91632689430634       -4.32558886394677
H           -9.19522633875583       -3.11169242841667       -3.83055634626457
H           -4.78935076792771       -3.87690837517146       -1.93127710886064
H           -6.67032820338026       -3.84044596245948        0.38414591104250
H           -6.20728058240533       -5.25407983033512       -0.57807192976429
H           -2.93894265230873       -3.88846383147545        1.59760515646128
H           -4.34156133475641       -2.79192693735944        1.71877914692822
H           -4.30523622402893       -5.69538612305801        0.78379534150513
H           -5.35945955754674       -4.98767388186810        2.01990014255514
H           -1.36410778805410       -2.87204626322688        0.79821084601193
H           -0.35451695564297       -1.24867433633741       -1.43993196486471
H           -1.21712482648609       -0.46825218210348        1.34301530277822
H           -1.99201805552802       -0.06159892758111       -0.20847100748118
H           -2.93771079423843       -0.82402204431793        1.07305331419703
H            1.95407805307511       -1.64388349434878       -1.74791600889457
H            3.11647744297041       -4.28701225622746       -1.78175783721981
H            0.47846346980480       -2.58021679372778       -3.51504076651577
H            2.17103283919333       -2.97345519624130       -3.85042811229857
H            1.08190667663626       -4.20509653311684       -3.18180270489392
H            4.22750710869477       -5.21057933153913        0.02698673060857
H            5.61446243161890       -2.89818258953703       -0.87131868336958
H            5.46457285956651       -4.87469758770457        2.13057528302509
H            4.86852693458414       -3.20686985173023        2.24297962859990
H            3.73365687456017       -4.55370852904799        2.33923308915513
H            7.81356025439700       -4.33218898402819       -2.24166753448898
H            7.90538751883295       -1.96231980209750       -0.49778547159678
H            9.28250384623435       -4.33501589451164        0.41910455476538
H            9.61903795490532       -5.95249882544855       -2.14622408831707
H            8.75435658904362       -6.48940975681131       -0.69816564505545
H           10.49478770102123       -6.20355718744644       -0.63291949487885
H           10.37902014321373       -2.51380371094844       -0.80201283068553
H           10.36469558821000       -3.45422804850508       -2.29858260444503
H           11.38916412810275       -3.94619115343904       -0.94810263262749
H            7.03530819276515       -0.06465853729678       -3.38249667888678
H            9.69289876015827       -0.40048007337749       -1.92181967454672
H            9.42175457767208        0.23247807319809       -3.55093199848351
H            7.18233707366682        2.20393226227883       -0.63177094104101
H            8.31569089751169        1.06234610861452        0.11998478630602
H            8.40995018247453        2.26414362865566       -2.66908959811949
H            9.75470561406942        2.01186161842349       -1.54646486912799
H            5.43855192077960        1.55698792520155        0.35631081981981
H            3.43170787200779       -0.61340073631092        0.41963039540627
H            5.57389652643768       -1.25228781199769        1.56788369085263
H            6.88158639622234       -0.05074576200646        1.65331995776674
H            1.16678400655181        1.10003286674170        1.25752795295814
H            1.29522867976453        0.02372659359743       -0.15843578067137
H            3.51140641740558       -0.95143495362914        2.84680951932811
H            6.64992959787707        1.93497524149692        3.08320327323088
H            1.15311260913094        2.93497875321326       -0.48804322792167
H            2.40531655540058        0.09791171065581        4.77644564946988
H            5.54608585988296        2.97946475338532        5.01510307029316
H            3.41772967294692        2.06718369318840        5.86581189685960
H           -0.87264660617722        2.61246260401650       -3.37707221468812
H           -1.02126012017793        3.73924442632536       -0.94231668374228
H            1.50647190745852        2.38344790701271       -3.96674351546434
H            1.02843344248797        4.08936571327364       -4.02742467582249
H            1.97756800787396        3.48503271089904       -2.66171841183030
H           -3.52492126702917        2.35806084084933        1.73821179307153
H           -1.56578252003599        1.97344702825245        0.59814268490609
H           -3.77238620625266        1.45205546106639       -0.54559191798375
H           -5.00261368704272        2.68123047718066       -0.27134935303424
H           -3.58243370119053        3.07026627118202       -1.24278259237953
H            0.24577148798878        7.65697600263575       -1.67064715895386
H           -0.54541987900515        7.95059923559891       -0.11425750543124
H            0.61784692899832        6.62545708596293       -0.28512330739681
