97
Properties=species:S:1:pos:R:3:forces:R:3 spin=3 charge=0 energy=-90905.64610499561 pbc="F F F"
C       -1.03181628       1.78992642      -1.20298346       0.00093130      -0.00152519       0.00609685
O       -1.79185009       1.81326006      -2.15548763      -0.00138721      -0.00412592       0.00731067
Ni       0.20762872       0.26376918      -0.96393009       0.00185697      -0.00154404      -0.00079162
C       -0.53634234      -1.14400328       0.29597433       0.00110305      -0.00108511      -0.00024864
N        0.20568001      -2.04599070       0.94448053       0.00043629      -0.00182294      -0.00043187
N       -1.81668464      -1.42602933       0.52434610       0.00087536       0.00027790       0.00033910
C       -0.58541874      -3.01751935       1.70859452      -0.00026273      -0.00057973       0.00044065
C        1.63439256      -2.02829761       1.01002357       0.00043573      -0.00206564       0.00004163
C       -2.01552128      -2.65790534       1.29656686       0.00003560       0.00030611       0.00018142
C       -2.92960537      -0.68834895       0.00689645       0.00106094       0.00058159       0.00021561
H       -0.30592203      -4.03462785       1.43254521      -0.00116263      -0.00104303       0.00134318
H       -0.41322826      -2.89227475       2.77945195      -0.00014411       0.00019602       0.00036444
C        2.36799004      -2.61554941      -0.02584862       0.00078497      -0.00149710      -0.00014091
C        2.24926854      -1.43113603       2.11602486       0.00017006      -0.00186978       0.00011644
H       -2.47454763      -3.42197325       0.66510471      -0.00024589       0.00065723      -0.00008642
H       -2.67124028      -2.47585465       2.14760660      -0.00007776       0.00057215       0.00000433
C       -3.57033977       0.22392072       0.85116885       0.00145531       0.00103250       0.00002277
C       -3.34581384      -0.91360912      -1.30668145       0.00059585       0.00011948       0.00044227
C        3.75501027      -2.58789025       0.06670901       0.00070581      -0.00079901      -0.00005746
C        1.69691532      -3.30157921      -1.19997224       0.00118459      -0.00051081      -0.00099631
C        3.63820027      -1.44566845       2.17489043       0.00015143      -0.00129338       0.00015657
C        1.45259638      -0.76517292       3.22205727       0.00011014      -0.00052572      -0.00065116
C       -4.64547221       0.93774667       0.33566510       0.00131657       0.00101727      -0.00001549
C       -3.15411518       0.41355438       2.29803777       0.00106423       0.00137979       0.00012229
C       -4.42847505      -0.18113695      -1.77725095       0.00028035      -0.00004755       0.00056168
C       -2.66178387      -1.92430205      -2.20637417       0.00038711       0.00042382      -0.00004973
C        4.38511314      -2.01418495       1.15737385       0.00045204      -0.00069181       0.00002744
H        4.35068273      -3.01849598      -0.72785790       0.00100203       0.00004506      -0.00031871
C        1.81128172      -4.82164884      -1.05174007      -0.00072458      -0.00074092      -0.00188755
C        2.25623170      -2.83507305      -2.54409593       0.00310993      -0.00056063      -0.00023118
H        0.63658305      -3.04170756      -1.17977849       0.00145584       0.00065021      -0.00196638
H        4.14258375      -0.98804157       3.01723512      -0.00003981      -0.00089474       0.00005844
C        1.88545781       0.68753198       3.43184033      -0.00053435       0.00018364      -0.00416524
C        1.56400935      -1.55680489       4.52784971       0.00095108       0.00273610       0.00125664
H        0.40271362      -0.74544979       2.92078308      -0.00004096      -0.00177033      -0.00018041
C       -5.06908837       0.73995260      -0.96762157       0.00080511       0.00029649       0.00032959
H       -5.15569560       1.66034887       0.96052101       0.00166230       0.00127925      -0.00013314
C       -4.21451377      -0.17129132       3.23689711       0.00091550       0.00081798      -0.00036295
C       -2.88439265       1.87789166       2.64416873      -0.00021652       0.00150666       0.00061758
H       -2.22055136      -0.13299105       2.45437792       0.00138222       0.00194725       0.00043982
H       -4.76248603      -0.31801528      -2.79768837      -0.00008311      -0.00061722       0.00076897
C       -2.33467436      -1.33748775      -3.58043074       0.00163757       0.00171912       0.00076480
C       -3.51428386      -3.18959107      -2.34072446      -0.00046163       0.00124790      -0.00219848
H       -1.71554624      -2.20701321      -1.73953447      -0.00013404      -0.00082314       0.00027353
H        5.46621151      -1.99816909       1.20807430       0.00045626       0.00028256      -0.00018869
H        1.38851569      -5.16704735      -0.10579166      -0.00227366      -0.00109291      -0.00270276
H        2.85860646      -5.13015225      -1.07671813      -0.00107063      -0.00198054      -0.00102345
H        1.29039813      -5.32779637      -1.86647499      -0.00039907       0.00058944      -0.00293892
H        2.21479213      -1.74799625      -2.62557263       0.00421187      -0.00048422       0.00012042
H        1.67551475      -3.27149096      -3.35948438       0.00352725       0.00034168      -0.00099613
H        3.29259600      -3.15231478      -2.67631137       0.00290268      -0.00161575       0.00072326
H        1.84668140       1.25328866       2.50005377      -0.00204338      -0.00181136      -0.00529095
H        2.90595886       0.74423626       3.81571408      -0.00005148       0.00150164      -0.00566900
H        1.23115032       1.17551892       4.15667016       0.00013951       0.00138486      -0.00434259
H        1.24574497      -2.59319180       4.40010138       0.00127838       0.00227672       0.00409679
H        0.95150810      -1.10203252       5.30845573       0.00094036       0.00456768       0.00016376
H        2.59780052      -1.57419226       4.87879217       0.00099663       0.00416870       0.00117159
H       -5.90188832       1.31182817      -1.35652708       0.00054186       0.00017577       0.00042199
H       -4.42564473      -1.21862594       3.01191853       0.00189350       0.00054710      -0.00003690
H       -5.15329344       0.37790657       3.13984890       0.00056266       0.00003869      -0.00142010
H       -3.88973339      -0.09982176       4.27676337       0.00004600       0.00163264      -0.00018262
H       -2.12603355       2.30912999       1.99222486       0.00081365       0.00194794       0.00216103
H       -2.53888644       1.96033447       3.67683554      -0.00231402       0.00164239       0.00129247
H       -3.79012575       2.48022487       2.55130844      -0.00030541       0.00112335      -0.00111154
H       -1.84848176      -0.36628182      -3.48386997       0.00213854       0.00133544       0.00210387
H       -3.23977274      -1.19754803      -4.17510432       0.00200163       0.00301416       0.00048239
H       -1.68213551      -2.01550689      -4.13413969       0.00145677       0.00194823       0.00029463
H       -3.72096777      -3.64323529      -1.36922498      -0.00252974       0.00085262      -0.00280885
H       -3.00928850      -3.92967169      -2.96458910      -0.00003197       0.00120422      -0.00179727
H       -4.47471826      -2.95455224      -2.80431539       0.00055343       0.00233731      -0.00376910
N        1.59809269       0.70298040      -2.15742687       0.00046681      -0.00327323      -0.00377650
C       -0.74538063       5.09858374       1.48993876      -0.00228783       0.00316571       0.00036037
C       -1.79022280       5.05088151       0.57142725      -0.00514300      -0.00196803       0.00383443
H        1.03980005       4.14281569       2.21024673       0.00244834       0.00978613      -0.00272414
C        0.21776550       4.09942919       1.50683476       0.00050747       0.00588118      -0.00020041
C       -1.88049675       3.99810069      -0.32429489      -0.00459140      -0.00408298       0.00623168
C       -0.92858359       2.98451662      -0.29638707      -0.00113149      -0.00083965       0.00505902
C        0.11893490       3.04337389       0.61299632       0.00108693       0.00371030       0.00216862
H       -2.68217509       3.93379444      -1.04982824      -0.00681200      -0.00816430       0.00902746
H        0.87307688       2.26065335       0.60498615       0.00314438       0.00579671       0.00144891
H       -0.68033027       5.92208126       2.18995290      -0.00226473       0.00515995      -0.00199637
H       -2.53010609       5.84154158       0.55848901      -0.00759315      -0.00431577       0.00452456
C        2.71764608       1.35783437      -1.69102948       0.00045500      -0.00426742      -0.00259427
C        3.43550495       2.31672259      -2.42595982       0.00347086      -0.00640701      -0.00246291
C        3.18449427       1.07032617      -0.39328651      -0.00293706      -0.00254047      -0.00089713
C        4.53983294       2.95448515      -1.87652027       0.00144906      -0.00508705      -0.00000742
H        3.12275830       2.58100282      -3.42614292       0.00728379      -0.00894974      -0.00436168
C        4.28366599       1.71033685       0.14309802      -0.00529735      -0.00079037       0.00174855
H        2.67553539       0.30030782       0.17823493      -0.00413020      -0.00212720      -0.00129582
C        4.97763295       2.66688050      -0.59309641      -0.00344507      -0.00160807       0.00247003
H        5.06226543       3.69689295      -2.46846822       0.00361361      -0.00656179       0.00004457
H        4.61193744       1.44952207       1.14342383      -0.00878274       0.00145592       0.00350239
H        5.84122005       3.16873865      -0.17729479      -0.00581152       0.00049183       0.00489261
C        1.23633719       0.94580922      -3.53984380       0.00002668       0.00079134      -0.00292582
H        0.97648917       1.99388047      -3.73939094      -0.00264692       0.00102610       0.00149240
H        2.04565654       0.66353022      -4.22565471       0.00080846       0.00597487      -0.00412030
H        0.36063977       0.34782612      -3.79525236       0.00187171      -0.00074500      -0.00557940
97
Properties=species:S:1:pos:R:3:forces:R:3 spin=3 charge=0 energy=-90905.64708441914 pbc="F F F"
C       -1.04015287       1.79148509      -1.18279200       0.00166514      -0.00117599       0.00423841
O       -1.81036991       1.81053491      -2.12718920       0.00083376      -0.00329140       0.00515902
Ni       0.20135236       0.26440973      -0.96219383       0.00177911      -0.00158954      -0.00037383
C       -0.53812808      -1.14720543       0.29529724       0.00094508      -0.00100772       0.00013287
N        0.20521176      -2.04705566       0.94544597       0.00035900      -0.00192434      -0.00040952
N       -1.81808976      -1.43178146       0.52229257       0.00073422       0.00028740       0.00078320
C       -0.58467711      -3.02103135       1.70778032      -0.00026409      -0.00090376       0.00025627
C        1.63379798      -2.02675760       1.01405252       0.00036399      -0.00200374      -0.00001322
C       -2.01557069      -2.66120493       1.29869496       0.00000613      -0.00011346      -0.00000330
C       -2.93218198      -0.69755311       0.00233548       0.00092384       0.00058284       0.00068224
H       -0.30491831      -4.03720852       1.42858104      -0.00105033      -0.00131789       0.00093548
H       -0.41136306      -2.89885628       2.77871536      -0.00018719      -0.00035694       0.00020433
C        2.37136364      -2.60767749      -0.02266923       0.00062416      -0.00139202      -0.00022797
C        2.24479907      -1.43405728       2.12462270       0.00006835      -0.00162787      -0.00005447
H       -2.47767358      -3.42670700       0.67132251      -0.00000439       0.00048062      -0.00074304
H       -2.66814943      -2.47557830       2.15131749      -0.00027829      -0.00042201      -0.00018206
C       -3.57260105       0.21925936       0.84207961       0.00109798       0.00083352       0.00056951
C       -3.34994058      -0.93083075      -1.30926143       0.00061251       0.00033528       0.00081229
C        3.75803354      -2.57945448       0.07466010       0.00066788      -0.00055586      -0.00023523
C        1.70482375      -3.28807770      -1.20264289       0.00101444      -0.00045806      -0.00100544
C        3.63355807      -1.44759391       2.18783222       0.00013392      -0.00088058      -0.00011610
C        1.44447741      -0.77338936       3.23122562       0.00005038      -0.00034819      -0.00078245
C       -4.64949450       0.92839938       0.32392128       0.00104746       0.00078804       0.00054739
C       -3.15511321       0.41633558       2.28766210       0.00062748       0.00093773       0.00072274
C       -4.43491002      -0.20331266      -1.78230635       0.00040621       0.00013990       0.00091595
C       -2.66413242      -1.94336324      -2.20551239       0.00051845       0.00067163       0.00034162
C        4.38420964      -2.01088986       1.17024929       0.00034068      -0.00030991      -0.00026397
H        4.35669364      -3.00555828      -0.72002932       0.00088098       0.00029937      -0.00051072
C        1.80749946      -4.80901091      -1.05436502      -0.00085203      -0.00064432      -0.00190677
C        2.27789037      -2.82507010      -2.54213792       0.00273809      -0.00044577      -0.00028129
H        0.64626041      -3.02065385      -1.19081524       0.00128570       0.00068190      -0.00185750
H        4.13481723      -0.99373703       3.03407717      -0.00008361      -0.00032149      -0.00033054
C        1.87573437       0.67881527       3.44782205      -0.00071711       0.00042887      -0.00428381
C        1.55294010      -1.56972072       4.53444031       0.00104850       0.00284042       0.00105770
H        0.39542458      -0.75322424       2.92710308      -0.00012003      -0.00168043      -0.00025377
C       -5.07546069       0.72164545      -0.97724517       0.00065520       0.00036605       0.00076387
H       -5.15955118       1.65437627       0.94490431       0.00118577       0.00092081       0.00048825
C       -4.20621635      -0.18108488       3.22917734       0.00013577       0.00080201       0.00012491
C       -2.90412412       1.88400368       2.63369313      -0.00001467       0.00096754       0.00110986
H       -2.21413888      -0.11800185       2.44209554       0.00064886       0.00108862       0.00114208
H       -4.77065085      -0.34711624      -2.80125400       0.00011759      -0.00026175       0.00106649
C       -2.33582141      -1.35823174      -3.58005816       0.00214946       0.00219166       0.00134050
C       -3.51495699      -3.20984521      -2.33880238      -0.00045448       0.00160980      -0.00217233
H       -1.71821798      -2.22421106      -1.73694815      -0.00014090      -0.00075151       0.00084395
H        5.46512239      -1.99476818       1.22475520       0.00038420       0.00080155      -0.00055515
H        1.37383965      -5.15227837      -0.11258291      -0.00221589      -0.00096714      -0.00264613
H        2.85301546      -5.12427175      -1.06985706      -0.00121598      -0.00190454      -0.00124359
H        1.29078089      -5.31125200      -1.87416243      -0.00068180       0.00064795      -0.00284724
H        2.24600055      -1.73761479      -2.62276223       0.00340716      -0.00041602      -0.00001734
H        1.69881541      -3.25523070      -3.36199044       0.00334809       0.00011853      -0.00099456
H        3.31210469      -3.15175355      -2.66793767       0.00265664      -0.00107575       0.00071369
H        1.83938075       1.24808483       2.51805806      -0.00252954      -0.00149825      -0.00536571
H        2.89500432       0.73459615       3.83508492      -0.00013048       0.00185843      -0.00603717
H        1.21894464       1.16372562       4.17245810       0.00008495       0.00147405      -0.00425625
H        1.23637386      -2.60604627       4.40213609       0.00144359       0.00237252       0.00383761
H        0.93755932      -1.11851100       5.31485743       0.00107841       0.00456364       0.00008989
H        2.58567603      -1.58713266       4.88846718       0.00114040       0.00432110       0.00088737
H       -5.90986199       1.28981297      -1.36814006       0.00045374       0.00019508       0.00086554
H       -4.40480561      -1.23121091       3.00607783       0.00050599       0.00073883       0.00017376
H       -5.15193278       0.35617992       3.13258751       0.00010419       0.00061446      -0.00069106
H       -3.88057390      -0.10403348       4.26837665      -0.00062864       0.00112124       0.00033120
H       -2.15270114       2.32579798       1.98095909       0.00121244       0.00102636       0.00259139
H       -2.55788188       1.97026149       3.66576696      -0.00204410       0.00099929       0.00179946
H       -3.81791964       2.47443969       2.54343684       0.00017204       0.00096805      -0.00064324
H       -1.84996470      -0.38671023      -3.48418369       0.00275296       0.00171234       0.00299012
H       -3.24037354      -1.21913776      -4.17573699       0.00266386       0.00374182       0.00091592
H       -1.68235725      -2.03637246      -4.13249025       0.00199611       0.00241907       0.00087977
H       -3.72143569      -3.66239474      -1.36675321      -0.00279599       0.00111736      -0.00289599
H       -3.00861097      -3.95019118      -2.96126628       0.00004794       0.00159986      -0.00174196
H       -4.47550040      -2.97695378      -2.80323341       0.00071416       0.00286778      -0.00393572
N        1.58818694       0.70774419      -2.15886082       0.00046611      -0.00317590      -0.00303848
C       -0.72408127       5.11027553       1.49479184      -0.00300225       0.00246312       0.00009291
C       -1.77369071       5.06422915       0.58159888      -0.00506670      -0.00220768       0.00273579
H        1.05831807       4.14688827       2.21177606       0.00145349       0.00898818      -0.00232398
C        0.23260330       4.10501424       1.51258248       0.00002091       0.00534651      -0.00042144
C       -1.87454130       4.00769432      -0.30858580      -0.00376373      -0.00377961       0.00447676
C       -0.92828983       2.98869270      -0.28060443      -0.00026622      -0.00062468       0.00359043
C        0.12321975       3.04534495       0.62425479       0.00135857       0.00367535       0.00137506
H       -2.68055874       3.94459796      -1.02938953      -0.00530490      -0.00755341       0.00656420
H        0.87223738       2.25787968       0.61680603       0.00362951       0.00586430       0.00071116
H       -0.65010709       5.93733030       2.18973461      -0.00374655       0.00398021      -0.00156319
H       -2.50886882       5.85926353       0.56851152      -0.00767057      -0.00459322       0.00330330
C        2.71139269       1.35447458      -1.69068675       0.00041156      -0.00393769      -0.00202792
C        3.44241132       2.30208729      -2.42737321       0.00284554      -0.00563676      -0.00182389
C        3.16872780       1.07072463      -0.38856810      -0.00249141      -0.00250500      -0.00064625
C        4.54892479       2.93374081      -1.87517761       0.00118244      -0.00459757       0.00027860
H        3.13859679       2.56231267      -3.43135978       0.00597725      -0.00767777      -0.00329560
C        4.26941557       1.70533638       0.15084275      -0.00440956      -0.00112888       0.00158744
H        2.65003660       0.30876286       0.18532475      -0.00355565      -0.00211053      -0.00101949
C        4.97584919       2.65149858      -0.58695747      -0.00279741      -0.00179459       0.00223795
H        5.08172185       3.66730205      -2.46891847       0.00296583      -0.00576388       0.00042231
H        4.58853007       1.44881132       1.15521382      -0.00732533       0.00069713       0.00298785
H        5.84030725       3.14960732      -0.16850048      -0.00473393      -0.00019833       0.00421157
C        1.22642333       0.95858157      -3.53973336       0.00011915       0.00006346      -0.00234325
H        0.97420991       2.00962833      -3.73386380      -0.00109614       0.00042042       0.00097367
H        2.03247796       0.67392033      -4.22842508       0.00038650       0.00328415      -0.00335094
H        0.34619196       0.36804258      -3.79667798       0.00099057      -0.00038441      -0.00413045
97
Properties=species:S:1:pos:R:3 spin=3 charge=0 pbc="F F F"
C       -1.06122025       1.79972728      -1.17908376
O       -1.84216352       1.81592084      -2.11412375
Ni       0.18730270       0.27542771      -0.95708351
C       -0.54204388      -1.14077178       0.29102381
N        0.20387885      -2.03339528       0.94677916
N       -1.81999427      -1.43519134       0.51273016
C       -0.58209932      -3.01285180       1.70650008
C        1.63118852      -2.01100914       1.01503114
C       -2.01445688      -2.65669171       1.30105551
C       -2.93549808      -0.70777523      -0.00897222
H       -0.30016287      -4.02770737       1.42405095
H       -0.40665099      -2.89381638       2.77714312
C        2.37045404      -2.58915316      -0.02207986
C        2.23901010      -1.42557069       2.13140179
H       -2.48050294      -3.42994614       0.68613202
H       -2.66208092      -2.46035565       2.15507019
C       -3.57612756       0.21157732       0.82691549
C       -3.35429501      -0.94904118      -1.31834289
C        3.75653285      -2.57319299       0.08541685
C        1.70824676      -3.27077272      -1.20465359
C        3.62717697      -1.45103531       2.20442792
C        1.43356514      -0.77730836       3.24271129
C       -4.65494485       0.91577870       0.30626159
C       -3.15635003       0.41323216       2.27136362
C       -4.44112137      -0.22607361      -1.79423661
C       -2.66982146      -1.96816672      -2.20757472
C        4.37996474      -2.01732408       1.18967056
H        4.35757623      -3.00051243      -0.70698999
C        1.81180865      -4.79103844      -1.04458178
C        2.28699713      -2.81561793      -2.54487155
H        0.64950506      -3.00418876      -1.19903402
H        4.12746817      -1.00738993       3.05712884
C        1.86515757       0.67053649       3.48678763
C        1.53739477      -1.59862462       4.53141114
H        0.38575295      -0.75082251       2.93459818
C       -5.08232011       0.70233341      -0.99369988
H       -5.16509956       1.64417432       0.92403472
C       -4.19372217      -0.19821770       3.21950276
C       -2.92188150       1.88349981       2.61640410
H       -2.20779514      -0.10897938       2.42156774
H       -4.77789038      -0.37562512      -2.81216608
C       -2.34710800      -1.39412019      -3.58791415
C       -3.51420891      -3.24093906      -2.32451173
H       -1.72190474      -2.24140430      -1.73919600
H        5.46052321      -2.01748146       1.25471078
H        1.37244318      -5.12474976      -0.10186031
H        2.85860199      -5.10321977      -1.04996927
H        1.30079051      -5.30379311      -1.86158848
H        2.26959592      -1.72800031      -2.62739012
H        1.70148422      -3.23657030      -3.36513101
H        3.31627677      -3.15763196      -2.67090290
H        1.84676083       1.25482079       2.56587940
H        2.87728273       0.71752629       3.89283318
H        1.19836235       1.14906633       4.20650616
H        1.22057289      -2.63157676       4.37561883
H        0.92213948      -1.16600161       5.32264421
H        2.57042014      -1.62547702       4.88404983
H       -5.91914421       1.26688911      -1.38601621
H       -4.37802955      -1.25189562       3.00157462
H       -5.14906976       0.32263373       3.12844109
H       -3.86298973      -0.11400351       4.25661842
H       -2.18481571       2.33385155       1.95360982
H       -2.56412024       1.97446459       3.64422711
H       -3.84390928       2.46238632       2.53654108
H       -1.86498222      -0.41993587      -3.49816203
H       -3.25331235      -1.26234229      -4.18286951
H       -1.69179246      -2.07457436      -4.13574746
H       -3.70253590      -3.69277885      -1.34831964
H       -3.01006673      -3.97958163      -2.95078173
H       -4.48355221      -3.01997057      -2.77638248
N        1.57726520       0.72721658      -2.14571108
C       -0.68612792       5.11358077       1.50066265
C       -1.73255833       5.09314284       0.58334853
H        1.06919227       4.10319276       2.22135738
C        0.24748339       4.08766864       1.51753917
C       -1.85503874       4.04149415      -0.31064395
C       -0.93034881       3.00189285      -0.28414893
C        0.11850951       3.03506284       0.62452775
H       -2.66322299       4.00460906      -1.03115798
H        0.85095605       2.23241217       0.61577379
H       -0.59723443       5.93288772       2.20266933
H       -2.45003860       5.90420574       0.57377107
C        2.70195589       1.37383480      -1.68045050
C        3.43257769       2.32123644      -2.41782800
C        3.15845712       1.09078990      -0.37824080
C        4.55162636       2.93706290      -1.87254995
H        3.12041892       2.59228464      -3.41677823
C        4.27167053       1.70913427       0.15294647
H        2.62845928       0.33967126       0.19964093
C        4.98906103       2.64160958      -0.59101242
H        5.08902885       3.66647789      -2.46658751
H        4.59292602       1.44808432       1.15475571
H        5.87243505       3.11473492      -0.18347656
C        1.21498539       0.96782792      -3.52873068
H        0.97451775       2.01955288      -3.73847108
H        2.01363217       0.65809104      -4.21573792
H        0.32603302       0.38571297      -3.77583239
97
Properties=species:S:1:pos:R:3 spin=3 charge=0 pbc="F F F"
C        0.19923895       2.24587690      -2.30190239
O       -0.24655516       2.24488410      -3.45808716
Ni      -0.03962882       0.85488099      -0.34306955
C       -0.52496466      -0.87719183       0.42458963
N        0.21104267      -1.92617577       0.82536701
N       -1.80741923      -1.16726961       0.70180280
C       -0.57258027      -2.88852192       1.60391561
C        1.63653994      -1.97867239       0.78909664
C       -1.98311245      -2.55746438       1.13526625
C       -2.89280850      -0.34013014       0.26158315
H       -0.26511718      -3.91203705       1.39294862
H       -0.44104610      -2.69371233       2.67493789
C        2.24156506      -2.80914757      -0.16220148
C        2.38116901      -1.24162027       1.71526370
H       -2.28710185      -3.18217386       0.28849564
H       -2.73227794      -2.64113178       1.92075227
C       -3.59712017       0.39434193       1.22114849
C       -3.20474021      -0.28476759      -1.10119573
C        3.63077679      -2.81458872      -0.22939398
C        1.43125110      -3.72440066      -1.06644180
C        3.76900973      -1.29975756       1.62901767
C        1.72941351      -0.44045708       2.82592021
C       -4.59236630       1.25659251       0.77678209
C       -3.27941014       0.25886968       2.69973820
C       -4.20379142       0.59679488      -1.50024844
C       -2.55945278      -1.21540968      -2.11052419
C        4.38836410      -2.05942524       0.65165754
H        4.12873768      -3.42780400      -0.97053908
C        1.93080018      -5.16852466      -0.96883517
C        1.41654319      -3.24781532      -2.51875008
H        0.39630711      -3.71029839      -0.72036453
H        4.37077541      -0.73829663       2.33369698
C        2.20098874       1.01286947       2.83826522
C        1.98894978      -1.11004737       4.17929261
H        0.65162274      -0.42842838       2.65400684
C       -4.88130869       1.36868003      -0.57307331
H       -5.14520736       1.85357302       1.49018306
C       -4.53677994       0.27848677       3.56861546
C       -2.27932082       1.32049511       3.15878014
H       -2.80371579      -0.71223776       2.84807318
H       -4.45426871       0.67854749      -2.54972341
C       -2.21617163      -0.52988636      -3.43170905
C       -3.48349538      -2.41409549      -2.35841416
H       -1.62452448      -1.58751705      -1.68452477
H        5.46872841      -2.07890900       0.58584898
H        1.94338011      -5.51576255       0.06592987
H        2.94232261      -5.26834218      -1.36658488
H        1.28452007      -5.83208266      -1.54605562
H        0.88926462      -2.30002678      -2.61432796
H        0.91473517      -3.97996732      -3.15468213
H        2.43066615      -3.11124830      -2.90038513
H        2.02374834       1.48860198       1.87392382
H        3.26755741       1.08339518       3.06072578
H        1.66433931       1.57841938       3.60256448
H        1.62127084      -2.13824126       4.19357641
H        1.49496538      -0.55666814       4.98031443
H        3.05890660      -1.13812752       4.39891017
H       -5.64912275       2.05680251      -0.90364122
H       -5.28036985      -0.43642132       3.21277087
H       -5.00078452       1.26582147       3.58694220
H       -4.28308484       0.02219551       4.59833904
H       -1.35296041       1.27130710       2.58338313
H       -2.04214628       1.18886091       4.21764018
H       -2.68945441       2.32154976       3.01937141
H       -1.65390650       0.39394429      -3.28919766
H       -3.11674024      -0.28891822      -4.00040431
H       -1.62078452      -1.20456942      -4.05207774
H       -3.72785635      -2.94198844      -1.43437294
H       -3.01683441      -3.12073888      -3.04758608
H       -4.42371713      -2.07851198      -2.80217915
N        1.31599045       1.33194820      -1.95985695
C       -1.61341916       4.14956554       1.06149325
C       -2.22796816       4.14181972      -0.21894380
H        0.15179465       3.65010490       2.15479729
C       -0.36248117       3.58808733       1.20197370